PSF EXT CMAP XPLOR

         3 !NTITLE
* GENERATED BY CHARMM-GUI (HTTP://WWW.CHARMM-GUI.ORG) V3.7 ON JUL, 11. 2024. JOB
* GET A DIFFERENT CONFORMATION FOR LIPIDS PENETRATING PROTEIN / CHOL            
*  DATE:     7/11/24      0:32:32      CREATED BY USER: apache                  

     24900 !NATOM
         1 MEMB     1        DOPE     N        NH3L    -0.300000       14.0070           0
         2 MEMB     1        DOPE     HN1      HCL      0.330000       1.00800           0
         3 MEMB     1        DOPE     HN2      HCL      0.330000       1.00800           0
         4 MEMB     1        DOPE     HN3      HCL      0.330000       1.00800           0
         5 MEMB     1        DOPE     C12      CTL2     0.130000       12.0110           0
         6 MEMB     1        DOPE     H12A     HAL2     0.900000E-01   1.00800           0
         7 MEMB     1        DOPE     H12B     HAL2     0.900000E-01   1.00800           0
         8 MEMB     1        DOPE     C11      CTL2    -0.800000E-01   12.0110           0
         9 MEMB     1        DOPE     H11A     HAL2     0.900000E-01   1.00800           0
        10 MEMB     1        DOPE     H11B     HAL2     0.900000E-01   1.00800           0
        11 MEMB     1        DOPE     P        PL        1.50000       30.9740           0
        12 MEMB     1        DOPE     O13      O2L     -0.780000       15.9994           0
        13 MEMB     1        DOPE     O14      O2L     -0.780000       15.9994           0
        14 MEMB     1        DOPE     O11      OSLP    -0.570000       15.9994           0
        15 MEMB     1        DOPE     O12      OSLP    -0.570000       15.9994           0
        16 MEMB     1        DOPE     C1       CTL2    -0.800000E-01   12.0110           0
        17 MEMB     1        DOPE     HA       HAL2     0.900000E-01   1.00800           0
        18 MEMB     1        DOPE     HB       HAL2     0.900000E-01   1.00800           0
        19 MEMB     1        DOPE     C2       CTL1     0.170000       12.0110           0
        20 MEMB     1        DOPE     HS       HAL1     0.900000E-01   1.00800           0
        21 MEMB     1        DOPE     O21      OSL     -0.490000       15.9994           0
        22 MEMB     1        DOPE     C21      CL       0.900000       12.0110           0
        23 MEMB     1        DOPE     O22      OBL     -0.630000       15.9994           0
        24 MEMB     1        DOPE     C22      CTL2    -0.220000       12.0110           0
        25 MEMB     1        DOPE     H2R      HAL2     0.900000E-01   1.00800           0
        26 MEMB     1        DOPE     H2S      HAL2     0.900000E-01   1.00800           0
        27 MEMB     1        DOPE     C3       CTL2     0.800000E-01   12.0110           0
        28 MEMB     1        DOPE     HX       HAL2     0.900000E-01   1.00800           0
        29 MEMB     1        DOPE     HY       HAL2     0.900000E-01   1.00800           0
        30 MEMB     1        DOPE     O31      OSL     -0.490000       15.9994           0
        31 MEMB     1        DOPE     C31      CL       0.900000       12.0110           0
        32 MEMB     1        DOPE     O32      OBL     -0.630000       15.9994           0
        33 MEMB     1        DOPE     C32      CTL2    -0.220000       12.0110           0
        34 MEMB     1        DOPE     H2X      HAL2     0.900000E-01   1.00800           0
        35 MEMB     1        DOPE     H2Y      HAL2     0.900000E-01   1.00800           0
        36 MEMB     1        DOPE     C23      CTL2    -0.180000       12.0110           0
        37 MEMB     1        DOPE     H3R      HAL2     0.900000E-01   1.00800           0
        38 MEMB     1        DOPE     H3S      HAL2     0.900000E-01   1.00800           0
        39 MEMB     1        DOPE     C24      CTL2    -0.180000       12.0110           0
        40 MEMB     1        DOPE     H4R      HAL2     0.900000E-01   1.00800           0
        41 MEMB     1        DOPE     H4S      HAL2     0.900000E-01   1.00800           0
        42 MEMB     1        DOPE     C25      CTL2    -0.180000       12.0110           0
        43 MEMB     1        DOPE     H5R      HAL2     0.900000E-01   1.00800           0
        44 MEMB     1        DOPE     H5S      HAL2     0.900000E-01   1.00800           0
        45 MEMB     1        DOPE     C26      CTL2    -0.180000       12.0110           0
        46 MEMB     1        DOPE     H6R      HAL2     0.900000E-01   1.00800           0
        47 MEMB     1        DOPE     H6S      HAL2     0.900000E-01   1.00800           0
        48 MEMB     1        DOPE     C27      CTL2    -0.180000       12.0110           0
        49 MEMB     1        DOPE     H7R      HAL2     0.900000E-01   1.00800           0
        50 MEMB     1        DOPE     H7S      HAL2     0.900000E-01   1.00800           0
        51 MEMB     1        DOPE     C28      CTL2    -0.180000       12.0110           0
        52 MEMB     1        DOPE     H8R      HAL2     0.900000E-01   1.00800           0
        53 MEMB     1        DOPE     H8S      HAL2     0.900000E-01   1.00800           0
        54 MEMB     1        DOPE     C29      CEL1    -0.150000       12.0110           0
        55 MEMB     1        DOPE     H9R      HEL1     0.150000       1.00800           0
        56 MEMB     1        DOPE     C210     CEL1    -0.150000       12.0110           0
        57 MEMB     1        DOPE     H10R     HEL1     0.150000       1.00800           0
        58 MEMB     1        DOPE     C211     CTL2    -0.180000       12.0110           0
        59 MEMB     1        DOPE     H11R     HAL2     0.900000E-01   1.00800           0
        60 MEMB     1        DOPE     H11S     HAL2     0.900000E-01   1.00800           0
        61 MEMB     1        DOPE     C212     CTL2    -0.180000       12.0110           0
        62 MEMB     1        DOPE     H12R     HAL2     0.900000E-01   1.00800           0
        63 MEMB     1        DOPE     H12S     HAL2     0.900000E-01   1.00800           0
        64 MEMB     1        DOPE     C213     CTL2    -0.180000       12.0110           0
        65 MEMB     1        DOPE     H13R     HAL2     0.900000E-01   1.00800           0
        66 MEMB     1        DOPE     H13S     HAL2     0.900000E-01   1.00800           0
        67 MEMB     1        DOPE     C214     CTL2    -0.180000       12.0110           0
        68 MEMB     1        DOPE     H14R     HAL2     0.900000E-01   1.00800           0
        69 MEMB     1        DOPE     H14S     HAL2     0.900000E-01   1.00800           0
        70 MEMB     1        DOPE     C215     CTL2    -0.180000       12.0110           0
        71 MEMB     1        DOPE     H15R     HAL2     0.900000E-01   1.00800           0
        72 MEMB     1        DOPE     H15S     HAL2     0.900000E-01   1.00800           0
        73 MEMB     1        DOPE     C216     CTL2    -0.180000       12.0110           0
        74 MEMB     1        DOPE     H16R     HAL2     0.900000E-01   1.00800           0
        75 MEMB     1        DOPE     H16S     HAL2     0.900000E-01   1.00800           0
        76 MEMB     1        DOPE     C217     CTL2    -0.180000       12.0110           0
        77 MEMB     1        DOPE     H17R     HAL2     0.900000E-01   1.00800           0
        78 MEMB     1        DOPE     H17S     HAL2     0.900000E-01   1.00800           0
        79 MEMB     1        DOPE     C218     CTL3    -0.270000       12.0110           0
        80 MEMB     1        DOPE     H18R     HAL3     0.900000E-01   1.00800           0
        81 MEMB     1        DOPE     H18S     HAL3     0.900000E-01   1.00800           0
        82 MEMB     1        DOPE     H18T     HAL3     0.900000E-01   1.00800           0
        83 MEMB     1        DOPE     C33      CTL2    -0.180000       12.0110           0
        84 MEMB     1        DOPE     H3X      HAL2     0.900000E-01   1.00800           0
        85 MEMB     1        DOPE     H3Y      HAL2     0.900000E-01   1.00800           0
        86 MEMB     1        DOPE     C34      CTL2    -0.180000       12.0110           0
        87 MEMB     1        DOPE     H4X      HAL2     0.900000E-01   1.00800           0
        88 MEMB     1        DOPE     H4Y      HAL2     0.900000E-01   1.00800           0
        89 MEMB     1        DOPE     C35      CTL2    -0.180000       12.0110           0
        90 MEMB     1        DOPE     H5X      HAL2     0.900000E-01   1.00800           0
        91 MEMB     1        DOPE     H5Y      HAL2     0.900000E-01   1.00800           0
        92 MEMB     1        DOPE     C36      CTL2    -0.180000       12.0110           0
        93 MEMB     1        DOPE     H6X      HAL2     0.900000E-01   1.00800           0
        94 MEMB     1        DOPE     H6Y      HAL2     0.900000E-01   1.00800           0
        95 MEMB     1        DOPE     C37      CTL2    -0.180000       12.0110           0
        96 MEMB     1        DOPE     H7X      HAL2     0.900000E-01   1.00800           0
        97 MEMB     1        DOPE     H7Y      HAL2     0.900000E-01   1.00800           0
        98 MEMB     1        DOPE     C38      CTL2    -0.180000       12.0110           0
        99 MEMB     1        DOPE     H8X      HAL2     0.900000E-01   1.00800           0
       100 MEMB     1        DOPE     H8Y      HAL2     0.900000E-01   1.00800           0
       101 MEMB     1        DOPE     C39      CEL1    -0.150000       12.0110           0
       102 MEMB     1        DOPE     H9X      HEL1     0.150000       1.00800           0
       103 MEMB     1        DOPE     C310     CEL1    -0.150000       12.0110           0
       104 MEMB     1        DOPE     H10X     HEL1     0.150000       1.00800           0
       105 MEMB     1        DOPE     C311     CTL2    -0.180000       12.0110           0
       106 MEMB     1        DOPE     H11X     HAL2     0.900000E-01   1.00800           0
       107 MEMB     1        DOPE     H11Y     HAL2     0.900000E-01   1.00800           0
       108 MEMB     1        DOPE     C312     CTL2    -0.180000       12.0110           0
       109 MEMB     1        DOPE     H12X     HAL2     0.900000E-01   1.00800           0
       110 MEMB     1        DOPE     H12Y     HAL2     0.900000E-01   1.00800           0
       111 MEMB     1        DOPE     C313     CTL2    -0.180000       12.0110           0
       112 MEMB     1        DOPE     H13X     HAL2     0.900000E-01   1.00800           0
       113 MEMB     1        DOPE     H13Y     HAL2     0.900000E-01   1.00800           0
       114 MEMB     1        DOPE     C314     CTL2    -0.180000       12.0110           0
       115 MEMB     1        DOPE     H14X     HAL2     0.900000E-01   1.00800           0
       116 MEMB     1        DOPE     H14Y     HAL2     0.900000E-01   1.00800           0
       117 MEMB     1        DOPE     C315     CTL2    -0.180000       12.0110           0
       118 MEMB     1        DOPE     H15X     HAL2     0.900000E-01   1.00800           0
       119 MEMB     1        DOPE     H15Y     HAL2     0.900000E-01   1.00800           0
       120 MEMB     1        DOPE     C316     CTL2    -0.180000       12.0110           0
       121 MEMB     1        DOPE     H16X     HAL2     0.900000E-01   1.00800           0
       122 MEMB     1        DOPE     H16Y     HAL2     0.900000E-01   1.00800           0
       123 MEMB     1        DOPE     C317     CTL2    -0.180000       12.0110           0
       124 MEMB     1        DOPE     H17X     HAL2     0.900000E-01   1.00800           0
       125 MEMB     1        DOPE     H17Y     HAL2     0.900000E-01   1.00800           0
       126 MEMB     1        DOPE     C318     CTL3    -0.270000       12.0110           0
       127 MEMB     1        DOPE     H18X     HAL3     0.900000E-01   1.00800           0
       128 MEMB     1        DOPE     H18Y     HAL3     0.900000E-01   1.00800           0
       129 MEMB     1        DOPE     H18Z     HAL3     0.900000E-01   1.00800           0
       130 MEMB     2        23SM     N        NTL     -0.600000       14.0070           0
       131 MEMB     2        23SM     C15      CTL5    -0.350000       12.0110           0
       132 MEMB     2        23SM     H15A     HL       0.250000       1.00800           0
       133 MEMB     2        23SM     H15B     HL       0.250000       1.00800           0
       134 MEMB     2        23SM     H15C     HL       0.250000       1.00800           0
       135 MEMB     2        23SM     C14      CTL5    -0.350000       12.0110           0
       136 MEMB     2        23SM     H14A     HL       0.250000       1.00800           0
       137 MEMB     2        23SM     H14B     HL       0.250000       1.00800           0
       138 MEMB     2        23SM     H14C     HL       0.250000       1.00800           0
       139 MEMB     2        23SM     C13      CTL5    -0.350000       12.0110           0
       140 MEMB     2        23SM     H13A     HL       0.250000       1.00800           0
       141 MEMB     2        23SM     H13B     HL       0.250000       1.00800           0
       142 MEMB     2        23SM     H13C     HL       0.250000       1.00800           0
       143 MEMB     2        23SM     C12      CTL2    -0.100000       12.0110           0
       144 MEMB     2        23SM     H12A     HL       0.250000       1.00800           0
       145 MEMB     2        23SM     H12B     HL       0.250000       1.00800           0
       146 MEMB     2        23SM     C11      CTL2    -0.800000E-01   12.0110           0
       147 MEMB     2        23SM     H11A     HAL2     0.900000E-01   1.00800           0
       148 MEMB     2        23SM     H11B     HAL2     0.900000E-01   1.00800           0
       149 MEMB     2        23SM     P        PL        1.50000       30.9740           0
       150 MEMB     2        23SM     O13      O2L     -0.780000       15.9994           0
       151 MEMB     2        23SM     O14      O2L     -0.780000       15.9994           0
       152 MEMB     2        23SM     O11      OSLP    -0.570000       15.9994           0
       153 MEMB     2        23SM     O12      OSLP    -0.570000       15.9994           0
       154 MEMB     2        23SM     C1S      CTL2    -0.800000E-01   12.0110           0
       155 MEMB     2        23SM     H1S      HAL2     0.900000E-01   1.00800           0
       156 MEMB     2        23SM     H1T      HAL2     0.900000E-01   1.00800           0
       157 MEMB     2        23SM     NF       NHL     -0.700000       14.0070           0
       158 MEMB     2        23SM     HNF      H        0.350000       1.00800           0
       159 MEMB     2        23SM     C2S      CTL1     0.300000       12.0110           0
       160 MEMB     2        23SM     H2S      HAL1     0.500000E-01   1.00800           0
       161 MEMB     2        23SM     C3S      CTO1     0.500000       12.0110           0
       162 MEMB     2        23SM     H3S      HAL1    -0.110000       1.00800           0
       163 MEMB     2        23SM     O3       OHL     -0.690000       15.9994           0
       164 MEMB     2        23SM     HO3      HOL      0.300000       1.00800           0
       165 MEMB     2        23SM     C4S      CEL3    -0.150000       12.0110           0
       166 MEMB     2        23SM     H4S      HEL1     0.150000       1.00800           0
       167 MEMB     2        23SM     C5S      CEL3    -0.150000       12.0110           0
       168 MEMB     2        23SM     H5S      HEL1     0.150000       1.00800           0
       169 MEMB     2        23SM     C6S      CTL2    -0.180000       12.0110           0
       170 MEMB     2        23SM     H6S      HAL2     0.900000E-01   1.00800           0
       171 MEMB     2        23SM     H6T      HAL2     0.900000E-01   1.00800           0
       172 MEMB     2        23SM     C7S      CTL2    -0.180000       12.0110           0
       173 MEMB     2        23SM     H7S      HAL2     0.900000E-01   1.00800           0
       174 MEMB     2        23SM     H7T      HAL2     0.900000E-01   1.00800           0
       175 MEMB     2        23SM     C8S      CTL2    -0.180000       12.0110           0
       176 MEMB     2        23SM     H8S      HAL2     0.900000E-01   1.00800           0
       177 MEMB     2        23SM     H8T      HAL2     0.900000E-01   1.00800           0
       178 MEMB     2        23SM     C9S      CTL2    -0.180000       12.0110           0
       179 MEMB     2        23SM     H9S      HAL2     0.900000E-01   1.00800           0
       180 MEMB     2        23SM     H9T      HAL2     0.900000E-01   1.00800           0
       181 MEMB     2        23SM     C10S     CTL2    -0.180000       12.0110           0
       182 MEMB     2        23SM     H10S     HAL2     0.900000E-01   1.00800           0
       183 MEMB     2        23SM     H10T     HAL2     0.900000E-01   1.00800           0
       184 MEMB     2        23SM     C11S     CTL2    -0.180000       12.0110           0
       185 MEMB     2        23SM     H11S     HAL2     0.900000E-01   1.00800           0
       186 MEMB     2        23SM     H11T     HAL2     0.900000E-01   1.00800           0
       187 MEMB     2        23SM     C12S     CTL2    -0.180000       12.0110           0
       188 MEMB     2        23SM     H12S     HAL2     0.900000E-01   1.00800           0
       189 MEMB     2        23SM     H12T     HAL2     0.900000E-01   1.00800           0
       190 MEMB     2        23SM     C13S     CTL2    -0.180000       12.0110           0
       191 MEMB     2        23SM     H13S     HAL2     0.900000E-01   1.00800           0
       192 MEMB     2        23SM     H13T     HAL2     0.900000E-01   1.00800           0
       193 MEMB     2        23SM     C14S     CTL2    -0.180000       12.0110           0
       194 MEMB     2        23SM     H14S     HAL2     0.900000E-01   1.00800           0
       195 MEMB     2        23SM     H14T     HAL2     0.900000E-01   1.00800           0
       196 MEMB     2        23SM     C15S     CTL2    -0.180000       12.0110           0
       197 MEMB     2        23SM     H15S     HAL2     0.900000E-01   1.00800           0
       198 MEMB     2        23SM     H15T     HAL2     0.900000E-01   1.00800           0
       199 MEMB     2        23SM     C16S     CTL2    -0.180000       12.0110           0
       200 MEMB     2        23SM     H16S     HAL2     0.900000E-01   1.00800           0
       201 MEMB     2        23SM     H16T     HAL2     0.900000E-01   1.00800           0
       202 MEMB     2        23SM     C17S     CTL2    -0.180000       12.0110           0
       203 MEMB     2        23SM     H17S     HAL2     0.900000E-01   1.00800           0
       204 MEMB     2        23SM     H17T     HAL2     0.900000E-01   1.00800           0
       205 MEMB     2        23SM     C18S     CTL3    -0.270000       12.0110           0
       206 MEMB     2        23SM     H18S     HAL3     0.900000E-01   1.00800           0
       207 MEMB     2        23SM     H18T     HAL3     0.900000E-01   1.00800           0
       208 MEMB     2        23SM     H18U     HAL3     0.900000E-01   1.00800           0
       209 MEMB     2        23SM     C1F      C        0.550000       12.0110           0
       210 MEMB     2        23SM     OF       O       -0.600000       15.9994           0
       211 MEMB     2        23SM     C2F      CTL2    -0.700000E-01   12.0110           0
       212 MEMB     2        23SM     H2F      HAL2     0.600000E-01   1.00800           0
       213 MEMB     2        23SM     H2G      HAL2     0.600000E-01   1.00800           0
       214 MEMB     2        23SM     C3F      CTL2    -0.180000       12.0110           0
       215 MEMB     2        23SM     H3F      HAL2     0.900000E-01   1.00800           0
       216 MEMB     2        23SM     H3G      HAL2     0.900000E-01   1.00800           0
       217 MEMB     2        23SM     C4F      CTL2    -0.180000       12.0110           0
       218 MEMB     2        23SM     H4F      HAL2     0.900000E-01   1.00800           0
       219 MEMB     2        23SM     H4G      HAL2     0.900000E-01   1.00800           0
       220 MEMB     2        23SM     C5F      CTL2    -0.180000       12.0110           0
       221 MEMB     2        23SM     H5F      HAL2     0.900000E-01   1.00800           0
       222 MEMB     2        23SM     H5G      HAL2     0.900000E-01   1.00800           0
       223 MEMB     2        23SM     C6F      CTL2    -0.180000       12.0110           0
       224 MEMB     2        23SM     H6F      HAL2     0.900000E-01   1.00800           0
       225 MEMB     2        23SM     H6G      HAL2     0.900000E-01   1.00800           0
       226 MEMB     2        23SM     C7F      CTL2    -0.180000       12.0110           0
       227 MEMB     2        23SM     H7F      HAL2     0.900000E-01   1.00800           0
       228 MEMB     2        23SM     H7G      HAL2     0.900000E-01   1.00800           0
       229 MEMB     2        23SM     C8F      CTL2    -0.180000       12.0110           0
       230 MEMB     2        23SM     H8F      HAL2     0.900000E-01   1.00800           0
       231 MEMB     2        23SM     H8G      HAL2     0.900000E-01   1.00800           0
       232 MEMB     2        23SM     C9F      CTL2    -0.180000       12.0110           0
       233 MEMB     2        23SM     H9F      HAL2     0.900000E-01   1.00800           0
       234 MEMB     2        23SM     H9G      HAL2     0.900000E-01   1.00800           0
       235 MEMB     2        23SM     C10F     CTL2    -0.180000       12.0110           0
       236 MEMB     2        23SM     H10F     HAL2     0.900000E-01   1.00800           0
       237 MEMB     2        23SM     H10G     HAL2     0.900000E-01   1.00800           0
       238 MEMB     2        23SM     C11F     CTL2    -0.180000       12.0110           0
       239 MEMB     2        23SM     H11F     HAL2     0.900000E-01   1.00800           0
       240 MEMB     2        23SM     H11G     HAL2     0.900000E-01   1.00800           0
       241 MEMB     2        23SM     C12F     CTL2    -0.180000       12.0110           0
       242 MEMB     2        23SM     H12F     HAL2     0.900000E-01   1.00800           0
       243 MEMB     2        23SM     H12G     HAL2     0.900000E-01   1.00800           0
       244 MEMB     2        23SM     C13F     CTL2    -0.180000       12.0110           0
       245 MEMB     2        23SM     H13F     HAL2     0.900000E-01   1.00800           0
       246 MEMB     2        23SM     H13G     HAL2     0.900000E-01   1.00800           0
       247 MEMB     2        23SM     C14F     CTL2    -0.180000       12.0110           0
       248 MEMB     2        23SM     H14F     HAL2     0.900000E-01   1.00800           0
       249 MEMB     2        23SM     H14G     HAL2     0.900000E-01   1.00800           0
       250 MEMB     2        23SM     C15F     CTL2    -0.180000       12.0110           0
       251 MEMB     2        23SM     H15F     HAL2     0.900000E-01   1.00800           0
       252 MEMB     2        23SM     H15G     HAL2     0.900000E-01   1.00800           0
       253 MEMB     2        23SM     C16F     CTL2    -0.180000       12.0110           0
       254 MEMB     2        23SM     H16F     HAL2     0.900000E-01   1.00800           0
       255 MEMB     2        23SM     H16G     HAL2     0.900000E-01   1.00800           0
       256 MEMB     2        23SM     C17F     CTL2    -0.180000       12.0110           0
       257 MEMB     2        23SM     H17F     HAL2     0.900000E-01   1.00800           0
       258 MEMB     2        23SM     H17G     HAL2     0.900000E-01   1.00800           0
       259 MEMB     2        23SM     C18F     CTL2    -0.180000       12.0110           0
       260 MEMB     2        23SM     H18F     HAL2     0.900000E-01   1.00800           0
       261 MEMB     2        23SM     H18G     HAL2     0.900000E-01   1.00800           0
       262 MEMB     2        23SM     C19F     CTL2    -0.180000       12.0110           0
       263 MEMB     2        23SM     H19F     HAL2     0.900000E-01   1.00800           0
       264 MEMB     2        23SM     H19G     HAL2     0.900000E-01   1.00800           0
       265 MEMB     2        23SM     C20F     CTL2    -0.180000       12.0110           0
       266 MEMB     2        23SM     H20F     HAL2     0.900000E-01   1.00800           0
       267 MEMB     2        23SM     H20G     HAL2     0.900000E-01   1.00800           0
       268 MEMB     2        23SM     C21F     CTL2    -0.180000       12.0110           0
       269 MEMB     2        23SM     H21F     HAL2     0.900000E-01   1.00800           0
       270 MEMB     2        23SM     H21G     HAL2     0.900000E-01   1.00800           0
       271 MEMB     2        23SM     C22F     CTL2    -0.180000       12.0110           0
       272 MEMB     2        23SM     H22F     HAL2     0.900000E-01   1.00800           0
       273 MEMB     2        23SM     H22G     HAL2     0.900000E-01   1.00800           0
       274 MEMB     2        23SM     C23F     CTL3    -0.270000       12.0110           0
       275 MEMB     2        23SM     H23F     HAL3     0.900000E-01   1.00800           0
       276 MEMB     2        23SM     H23G     HAL3     0.900000E-01   1.00800           0
       277 MEMB     2        23SM     H23H     HAL3     0.900000E-01   1.00800           0
       278 MEMB     3        23SM     N        NTL     -0.600000       14.0070           0
       279 MEMB     3        23SM     C15      CTL5    -0.350000       12.0110           0
       280 MEMB     3        23SM     H15A     HL       0.250000       1.00800           0
       281 MEMB     3        23SM     H15B     HL       0.250000       1.00800           0
       282 MEMB     3        23SM     H15C     HL       0.250000       1.00800           0
       283 MEMB     3        23SM     C14      CTL5    -0.350000       12.0110           0
       284 MEMB     3        23SM     H14A     HL       0.250000       1.00800           0
       285 MEMB     3        23SM     H14B     HL       0.250000       1.00800           0
       286 MEMB     3        23SM     H14C     HL       0.250000       1.00800           0
       287 MEMB     3        23SM     C13      CTL5    -0.350000       12.0110           0
       288 MEMB     3        23SM     H13A     HL       0.250000       1.00800           0
       289 MEMB     3        23SM     H13B     HL       0.250000       1.00800           0
       290 MEMB     3        23SM     H13C     HL       0.250000       1.00800           0
       291 MEMB     3        23SM     C12      CTL2    -0.100000       12.0110           0
       292 MEMB     3        23SM     H12A     HL       0.250000       1.00800           0
       293 MEMB     3        23SM     H12B     HL       0.250000       1.00800           0
       294 MEMB     3        23SM     C11      CTL2    -0.800000E-01   12.0110           0
       295 MEMB     3        23SM     H11A     HAL2     0.900000E-01   1.00800           0
       296 MEMB     3        23SM     H11B     HAL2     0.900000E-01   1.00800           0
       297 MEMB     3        23SM     P        PL        1.50000       30.9740           0
       298 MEMB     3        23SM     O13      O2L     -0.780000       15.9994           0
       299 MEMB     3        23SM     O14      O2L     -0.780000       15.9994           0
       300 MEMB     3        23SM     O11      OSLP    -0.570000       15.9994           0
       301 MEMB     3        23SM     O12      OSLP    -0.570000       15.9994           0
       302 MEMB     3        23SM     C1S      CTL2    -0.800000E-01   12.0110           0
       303 MEMB     3        23SM     H1S      HAL2     0.900000E-01   1.00800           0
       304 MEMB     3        23SM     H1T      HAL2     0.900000E-01   1.00800           0
       305 MEMB     3        23SM     NF       NHL     -0.700000       14.0070           0
       306 MEMB     3        23SM     HNF      H        0.350000       1.00800           0
       307 MEMB     3        23SM     C2S      CTL1     0.300000       12.0110           0
       308 MEMB     3        23SM     H2S      HAL1     0.500000E-01   1.00800           0
       309 MEMB     3        23SM     C3S      CTO1     0.500000       12.0110           0
       310 MEMB     3        23SM     H3S      HAL1    -0.110000       1.00800           0
       311 MEMB     3        23SM     O3       OHL     -0.690000       15.9994           0
       312 MEMB     3        23SM     HO3      HOL      0.300000       1.00800           0
       313 MEMB     3        23SM     C4S      CEL3    -0.150000       12.0110           0
       314 MEMB     3        23SM     H4S      HEL1     0.150000       1.00800           0
       315 MEMB     3        23SM     C5S      CEL3    -0.150000       12.0110           0
       316 MEMB     3        23SM     H5S      HEL1     0.150000       1.00800           0
       317 MEMB     3        23SM     C6S      CTL2    -0.180000       12.0110           0
       318 MEMB     3        23SM     H6S      HAL2     0.900000E-01   1.00800           0
       319 MEMB     3        23SM     H6T      HAL2     0.900000E-01   1.00800           0
       320 MEMB     3        23SM     C7S      CTL2    -0.180000       12.0110           0
       321 MEMB     3        23SM     H7S      HAL2     0.900000E-01   1.00800           0
       322 MEMB     3        23SM     H7T      HAL2     0.900000E-01   1.00800           0
       323 MEMB     3        23SM     C8S      CTL2    -0.180000       12.0110           0
       324 MEMB     3        23SM     H8S      HAL2     0.900000E-01   1.00800           0
       325 MEMB     3        23SM     H8T      HAL2     0.900000E-01   1.00800           0
       326 MEMB     3        23SM     C9S      CTL2    -0.180000       12.0110           0
       327 MEMB     3        23SM     H9S      HAL2     0.900000E-01   1.00800           0
       328 MEMB     3        23SM     H9T      HAL2     0.900000E-01   1.00800           0
       329 MEMB     3        23SM     C10S     CTL2    -0.180000       12.0110           0
       330 MEMB     3        23SM     H10S     HAL2     0.900000E-01   1.00800           0
       331 MEMB     3        23SM     H10T     HAL2     0.900000E-01   1.00800           0
       332 MEMB     3        23SM     C11S     CTL2    -0.180000       12.0110           0
       333 MEMB     3        23SM     H11S     HAL2     0.900000E-01   1.00800           0
       334 MEMB     3        23SM     H11T     HAL2     0.900000E-01   1.00800           0
       335 MEMB     3        23SM     C12S     CTL2    -0.180000       12.0110           0
       336 MEMB     3        23SM     H12S     HAL2     0.900000E-01   1.00800           0
       337 MEMB     3        23SM     H12T     HAL2     0.900000E-01   1.00800           0
       338 MEMB     3        23SM     C13S     CTL2    -0.180000       12.0110           0
       339 MEMB     3        23SM     H13S     HAL2     0.900000E-01   1.00800           0
       340 MEMB     3        23SM     H13T     HAL2     0.900000E-01   1.00800           0
       341 MEMB     3        23SM     C14S     CTL2    -0.180000       12.0110           0
       342 MEMB     3        23SM     H14S     HAL2     0.900000E-01   1.00800           0
       343 MEMB     3        23SM     H14T     HAL2     0.900000E-01   1.00800           0
       344 MEMB     3        23SM     C15S     CTL2    -0.180000       12.0110           0
       345 MEMB     3        23SM     H15S     HAL2     0.900000E-01   1.00800           0
       346 MEMB     3        23SM     H15T     HAL2     0.900000E-01   1.00800           0
       347 MEMB     3        23SM     C16S     CTL2    -0.180000       12.0110           0
       348 MEMB     3        23SM     H16S     HAL2     0.900000E-01   1.00800           0
       349 MEMB     3        23SM     H16T     HAL2     0.900000E-01   1.00800           0
       350 MEMB     3        23SM     C17S     CTL2    -0.180000       12.0110           0
       351 MEMB     3        23SM     H17S     HAL2     0.900000E-01   1.00800           0
       352 MEMB     3        23SM     H17T     HAL2     0.900000E-01   1.00800           0
       353 MEMB     3        23SM     C18S     CTL3    -0.270000       12.0110           0
       354 MEMB     3        23SM     H18S     HAL3     0.900000E-01   1.00800           0
       355 MEMB     3        23SM     H18T     HAL3     0.900000E-01   1.00800           0
       356 MEMB     3        23SM     H18U     HAL3     0.900000E-01   1.00800           0
       357 MEMB     3        23SM     C1F      C        0.550000       12.0110           0
       358 MEMB     3        23SM     OF       O       -0.600000       15.9994           0
       359 MEMB     3        23SM     C2F      CTL2    -0.700000E-01   12.0110           0
       360 MEMB     3        23SM     H2F      HAL2     0.600000E-01   1.00800           0
       361 MEMB     3        23SM     H2G      HAL2     0.600000E-01   1.00800           0
       362 MEMB     3        23SM     C3F      CTL2    -0.180000       12.0110           0
       363 MEMB     3        23SM     H3F      HAL2     0.900000E-01   1.00800           0
       364 MEMB     3        23SM     H3G      HAL2     0.900000E-01   1.00800           0
       365 MEMB     3        23SM     C4F      CTL2    -0.180000       12.0110           0
       366 MEMB     3        23SM     H4F      HAL2     0.900000E-01   1.00800           0
       367 MEMB     3        23SM     H4G      HAL2     0.900000E-01   1.00800           0
       368 MEMB     3        23SM     C5F      CTL2    -0.180000       12.0110           0
       369 MEMB     3        23SM     H5F      HAL2     0.900000E-01   1.00800           0
       370 MEMB     3        23SM     H5G      HAL2     0.900000E-01   1.00800           0
       371 MEMB     3        23SM     C6F      CTL2    -0.180000       12.0110           0
       372 MEMB     3        23SM     H6F      HAL2     0.900000E-01   1.00800           0
       373 MEMB     3        23SM     H6G      HAL2     0.900000E-01   1.00800           0
       374 MEMB     3        23SM     C7F      CTL2    -0.180000       12.0110           0
       375 MEMB     3        23SM     H7F      HAL2     0.900000E-01   1.00800           0
       376 MEMB     3        23SM     H7G      HAL2     0.900000E-01   1.00800           0
       377 MEMB     3        23SM     C8F      CTL2    -0.180000       12.0110           0
       378 MEMB     3        23SM     H8F      HAL2     0.900000E-01   1.00800           0
       379 MEMB     3        23SM     H8G      HAL2     0.900000E-01   1.00800           0
       380 MEMB     3        23SM     C9F      CTL2    -0.180000       12.0110           0
       381 MEMB     3        23SM     H9F      HAL2     0.900000E-01   1.00800           0
       382 MEMB     3        23SM     H9G      HAL2     0.900000E-01   1.00800           0
       383 MEMB     3        23SM     C10F     CTL2    -0.180000       12.0110           0
       384 MEMB     3        23SM     H10F     HAL2     0.900000E-01   1.00800           0
       385 MEMB     3        23SM     H10G     HAL2     0.900000E-01   1.00800           0
       386 MEMB     3        23SM     C11F     CTL2    -0.180000       12.0110           0
       387 MEMB     3        23SM     H11F     HAL2     0.900000E-01   1.00800           0
       388 MEMB     3        23SM     H11G     HAL2     0.900000E-01   1.00800           0
       389 MEMB     3        23SM     C12F     CTL2    -0.180000       12.0110           0
       390 MEMB     3        23SM     H12F     HAL2     0.900000E-01   1.00800           0
       391 MEMB     3        23SM     H12G     HAL2     0.900000E-01   1.00800           0
       392 MEMB     3        23SM     C13F     CTL2    -0.180000       12.0110           0
       393 MEMB     3        23SM     H13F     HAL2     0.900000E-01   1.00800           0
       394 MEMB     3        23SM     H13G     HAL2     0.900000E-01   1.00800           0
       395 MEMB     3        23SM     C14F     CTL2    -0.180000       12.0110           0
       396 MEMB     3        23SM     H14F     HAL2     0.900000E-01   1.00800           0
       397 MEMB     3        23SM     H14G     HAL2     0.900000E-01   1.00800           0
       398 MEMB     3        23SM     C15F     CTL2    -0.180000       12.0110           0
       399 MEMB     3        23SM     H15F     HAL2     0.900000E-01   1.00800           0
       400 MEMB     3        23SM     H15G     HAL2     0.900000E-01   1.00800           0
       401 MEMB     3        23SM     C16F     CTL2    -0.180000       12.0110           0
       402 MEMB     3        23SM     H16F     HAL2     0.900000E-01   1.00800           0
       403 MEMB     3        23SM     H16G     HAL2     0.900000E-01   1.00800           0
       404 MEMB     3        23SM     C17F     CTL2    -0.180000       12.0110           0
       405 MEMB     3        23SM     H17F     HAL2     0.900000E-01   1.00800           0
       406 MEMB     3        23SM     H17G     HAL2     0.900000E-01   1.00800           0
       407 MEMB     3        23SM     C18F     CTL2    -0.180000       12.0110           0
       408 MEMB     3        23SM     H18F     HAL2     0.900000E-01   1.00800           0
       409 MEMB     3        23SM     H18G     HAL2     0.900000E-01   1.00800           0
       410 MEMB     3        23SM     C19F     CTL2    -0.180000       12.0110           0
       411 MEMB     3        23SM     H19F     HAL2     0.900000E-01   1.00800           0
       412 MEMB     3        23SM     H19G     HAL2     0.900000E-01   1.00800           0
       413 MEMB     3        23SM     C20F     CTL2    -0.180000       12.0110           0
       414 MEMB     3        23SM     H20F     HAL2     0.900000E-01   1.00800           0
       415 MEMB     3        23SM     H20G     HAL2     0.900000E-01   1.00800           0
       416 MEMB     3        23SM     C21F     CTL2    -0.180000       12.0110           0
       417 MEMB     3        23SM     H21F     HAL2     0.900000E-01   1.00800           0
       418 MEMB     3        23SM     H21G     HAL2     0.900000E-01   1.00800           0
       419 MEMB     3        23SM     C22F     CTL2    -0.180000       12.0110           0
       420 MEMB     3        23SM     H22F     HAL2     0.900000E-01   1.00800           0
       421 MEMB     3        23SM     H22G     HAL2     0.900000E-01   1.00800           0
       422 MEMB     3        23SM     C23F     CTL3    -0.270000       12.0110           0
       423 MEMB     3        23SM     H23F     HAL3     0.900000E-01   1.00800           0
       424 MEMB     3        23SM     H23G     HAL3     0.900000E-01   1.00800           0
       425 MEMB     3        23SM     H23H     HAL3     0.900000E-01   1.00800           0
       426 MEMB     4        CHL1     C3       CRL1     0.140000       12.0110           0
       427 MEMB     4        CHL1     H3       HGA1     0.900000E-01   1.00800           0
       428 MEMB     4        CHL1     O3       OHL     -0.660000       15.9994           0
       429 MEMB     4        CHL1     H3'      HOL      0.430000       1.00800           0
       430 MEMB     4        CHL1     C4       CRL2    -0.180000       12.0110           0
       431 MEMB     4        CHL1     H4A      HGA2     0.900000E-01   1.00800           0
       432 MEMB     4        CHL1     H4B      HGA2     0.900000E-01   1.00800           0
       433 MEMB     4        CHL1     C5       CEL1      0.00000       12.0110           0
       434 MEMB     4        CHL1     C6       CEL1    -0.150000       12.0110           0
       435 MEMB     4        CHL1     H6       HEL1     0.150000       1.00800           0
       436 MEMB     4        CHL1     C7       CRL2    -0.180000       12.0110           0
       437 MEMB     4        CHL1     H7A      HGA2     0.900000E-01   1.00800           0
       438 MEMB     4        CHL1     H7B      HGA2     0.900000E-01   1.00800           0
       439 MEMB     4        CHL1     C8       CRL1    -0.900000E-01   12.0110           0
       440 MEMB     4        CHL1     H8       HGA1     0.900000E-01   1.00800           0
       441 MEMB     4        CHL1     C14      CRL1    -0.900000E-01   12.0110           0
       442 MEMB     4        CHL1     H14      HGA1     0.900000E-01   1.00800           0
       443 MEMB     4        CHL1     C15      CRL2    -0.180000       12.0110           0
       444 MEMB     4        CHL1     H15A     HGA2     0.900000E-01   1.00800           0
       445 MEMB     4        CHL1     H15B     HGA2     0.900000E-01   1.00800           0
       446 MEMB     4        CHL1     C16      CRL2    -0.180000       12.0110           0
       447 MEMB     4        CHL1     H16A     HGA2     0.900000E-01   1.00800           0
       448 MEMB     4        CHL1     H16B     HGA2     0.900000E-01   1.00800           0
       449 MEMB     4        CHL1     C17      CRL1    -0.900000E-01   12.0110           0
       450 MEMB     4        CHL1     H17      HGA1     0.900000E-01   1.00800           0
       451 MEMB     4        CHL1     C13      CRL1      0.00000       12.0110           0
       452 MEMB     4        CHL1     C18      CTL3    -0.270000       12.0110           0
       453 MEMB     4        CHL1     H18A     HAL3     0.900000E-01   1.00800           0
       454 MEMB     4        CHL1     H18B     HAL3     0.900000E-01   1.00800           0
       455 MEMB     4        CHL1     H18C     HAL3     0.900000E-01   1.00800           0
       456 MEMB     4        CHL1     C12      CRL2    -0.180000       12.0110           0
       457 MEMB     4        CHL1     H12A     HGA2     0.900000E-01   1.00800           0
       458 MEMB     4        CHL1     H12B     HGA2     0.900000E-01   1.00800           0
       459 MEMB     4        CHL1     C11      CRL2    -0.180000       12.0110           0
       460 MEMB     4        CHL1     H11A     HGA2     0.900000E-01   1.00800           0
       461 MEMB     4        CHL1     H11B     HGA2     0.900000E-01   1.00800           0
       462 MEMB     4        CHL1     C9       CRL1    -0.900000E-01   12.0110           0
       463 MEMB     4        CHL1     H9       HGA1     0.900000E-01   1.00800           0
       464 MEMB     4        CHL1     C10      CRL1      0.00000       12.0110           0
       465 MEMB     4        CHL1     C19      CTL3    -0.270000       12.0110           0
       466 MEMB     4        CHL1     H19A     HAL3     0.900000E-01   1.00800           0
       467 MEMB     4        CHL1     H19B     HAL3     0.900000E-01   1.00800           0
       468 MEMB     4        CHL1     H19C     HAL3     0.900000E-01   1.00800           0
       469 MEMB     4        CHL1     C1       CRL2    -0.180000       12.0110           0
       470 MEMB     4        CHL1     H1A      HGA2     0.900000E-01   1.00800           0
       471 MEMB     4        CHL1     H1B      HGA2     0.900000E-01   1.00800           0
       472 MEMB     4        CHL1     C2       CRL2    -0.180000       12.0110           0
       473 MEMB     4        CHL1     H2A      HGA2     0.900000E-01   1.00800           0
       474 MEMB     4        CHL1     H2B      HGA2     0.900000E-01   1.00800           0
       475 MEMB     4        CHL1     C20      CTL1    -0.900000E-01   12.0110           0
       476 MEMB     4        CHL1     H20      HAL1     0.900000E-01   1.00800           0
       477 MEMB     4        CHL1     C21      CTL3    -0.270000       12.0110           0
       478 MEMB     4        CHL1     H21A     HAL3     0.900000E-01   1.00800           0
       479 MEMB     4        CHL1     H21B     HAL3     0.900000E-01   1.00800           0
       480 MEMB     4        CHL1     H21C     HAL3     0.900000E-01   1.00800           0
       481 MEMB     4        CHL1     C22      CTL2    -0.180000       12.0110           0
       482 MEMB     4        CHL1     H22A     HAL2     0.900000E-01   1.00800           0
       483 MEMB     4        CHL1     H22B     HAL2     0.900000E-01   1.00800           0
       484 MEMB     4        CHL1     C23      CTL2    -0.180000       12.0110           0
       485 MEMB     4        CHL1     H23A     HAL2     0.900000E-01   1.00800           0
       486 MEMB     4        CHL1     H23B     HAL2     0.900000E-01   1.00800           0
       487 MEMB     4        CHL1     C24      CTL2    -0.180000       12.0110           0
       488 MEMB     4        CHL1     H24A     HAL2     0.900000E-01   1.00800           0
       489 MEMB     4        CHL1     H24B     HAL2     0.900000E-01   1.00800           0
       490 MEMB     4        CHL1     C25      CTL1    -0.900000E-01   12.0110           0
       491 MEMB     4        CHL1     H25      HAL1     0.900000E-01   1.00800           0
       492 MEMB     4        CHL1     C26      CTL3    -0.270000       12.0110           0
       493 MEMB     4        CHL1     H26A     HAL3     0.900000E-01   1.00800           0
       494 MEMB     4        CHL1     H26B     HAL3     0.900000E-01   1.00800           0
       495 MEMB     4        CHL1     H26C     HAL3     0.900000E-01   1.00800           0
       496 MEMB     4        CHL1     C27      CTL3    -0.270000       12.0110           0
       497 MEMB     4        CHL1     H27A     HAL3     0.900000E-01   1.00800           0
       498 MEMB     4        CHL1     H27B     HAL3     0.900000E-01   1.00800           0
       499 MEMB     4        CHL1     H27C     HAL3     0.900000E-01   1.00800           0
       500 MEMB     5        DOPE     N        NH3L    -0.300000       14.0070           0
       501 MEMB     5        DOPE     HN1      HCL      0.330000       1.00800           0
       502 MEMB     5        DOPE     HN2      HCL      0.330000       1.00800           0
       503 MEMB     5        DOPE     HN3      HCL      0.330000       1.00800           0
       504 MEMB     5        DOPE     C12      CTL2     0.130000       12.0110           0
       505 MEMB     5        DOPE     H12A     HAL2     0.900000E-01   1.00800           0
       506 MEMB     5        DOPE     H12B     HAL2     0.900000E-01   1.00800           0
       507 MEMB     5        DOPE     C11      CTL2    -0.800000E-01   12.0110           0
       508 MEMB     5        DOPE     H11A     HAL2     0.900000E-01   1.00800           0
       509 MEMB     5        DOPE     H11B     HAL2     0.900000E-01   1.00800           0
       510 MEMB     5        DOPE     P        PL        1.50000       30.9740           0
       511 MEMB     5        DOPE     O13      O2L     -0.780000       15.9994           0
       512 MEMB     5        DOPE     O14      O2L     -0.780000       15.9994           0
       513 MEMB     5        DOPE     O11      OSLP    -0.570000       15.9994           0
       514 MEMB     5        DOPE     O12      OSLP    -0.570000       15.9994           0
       515 MEMB     5        DOPE     C1       CTL2    -0.800000E-01   12.0110           0
       516 MEMB     5        DOPE     HA       HAL2     0.900000E-01   1.00800           0
       517 MEMB     5        DOPE     HB       HAL2     0.900000E-01   1.00800           0
       518 MEMB     5        DOPE     C2       CTL1     0.170000       12.0110           0
       519 MEMB     5        DOPE     HS       HAL1     0.900000E-01   1.00800           0
       520 MEMB     5        DOPE     O21      OSL     -0.490000       15.9994           0
       521 MEMB     5        DOPE     C21      CL       0.900000       12.0110           0
       522 MEMB     5        DOPE     O22      OBL     -0.630000       15.9994           0
       523 MEMB     5        DOPE     C22      CTL2    -0.220000       12.0110           0
       524 MEMB     5        DOPE     H2R      HAL2     0.900000E-01   1.00800           0
       525 MEMB     5        DOPE     H2S      HAL2     0.900000E-01   1.00800           0
       526 MEMB     5        DOPE     C3       CTL2     0.800000E-01   12.0110           0
       527 MEMB     5        DOPE     HX       HAL2     0.900000E-01   1.00800           0
       528 MEMB     5        DOPE     HY       HAL2     0.900000E-01   1.00800           0
       529 MEMB     5        DOPE     O31      OSL     -0.490000       15.9994           0
       530 MEMB     5        DOPE     C31      CL       0.900000       12.0110           0
       531 MEMB     5        DOPE     O32      OBL     -0.630000       15.9994           0
       532 MEMB     5        DOPE     C32      CTL2    -0.220000       12.0110           0
       533 MEMB     5        DOPE     H2X      HAL2     0.900000E-01   1.00800           0
       534 MEMB     5        DOPE     H2Y      HAL2     0.900000E-01   1.00800           0
       535 MEMB     5        DOPE     C23      CTL2    -0.180000       12.0110           0
       536 MEMB     5        DOPE     H3R      HAL2     0.900000E-01   1.00800           0
       537 MEMB     5        DOPE     H3S      HAL2     0.900000E-01   1.00800           0
       538 MEMB     5        DOPE     C24      CTL2    -0.180000       12.0110           0
       539 MEMB     5        DOPE     H4R      HAL2     0.900000E-01   1.00800           0
       540 MEMB     5        DOPE     H4S      HAL2     0.900000E-01   1.00800           0
       541 MEMB     5        DOPE     C25      CTL2    -0.180000       12.0110           0
       542 MEMB     5        DOPE     H5R      HAL2     0.900000E-01   1.00800           0
       543 MEMB     5        DOPE     H5S      HAL2     0.900000E-01   1.00800           0
       544 MEMB     5        DOPE     C26      CTL2    -0.180000       12.0110           0
       545 MEMB     5        DOPE     H6R      HAL2     0.900000E-01   1.00800           0
       546 MEMB     5        DOPE     H6S      HAL2     0.900000E-01   1.00800           0
       547 MEMB     5        DOPE     C27      CTL2    -0.180000       12.0110           0
       548 MEMB     5        DOPE     H7R      HAL2     0.900000E-01   1.00800           0
       549 MEMB     5        DOPE     H7S      HAL2     0.900000E-01   1.00800           0
       550 MEMB     5        DOPE     C28      CTL2    -0.180000       12.0110           0
       551 MEMB     5        DOPE     H8R      HAL2     0.900000E-01   1.00800           0
       552 MEMB     5        DOPE     H8S      HAL2     0.900000E-01   1.00800           0
       553 MEMB     5        DOPE     C29      CEL1    -0.150000       12.0110           0
       554 MEMB     5        DOPE     H9R      HEL1     0.150000       1.00800           0
       555 MEMB     5        DOPE     C210     CEL1    -0.150000       12.0110           0
       556 MEMB     5        DOPE     H10R     HEL1     0.150000       1.00800           0
       557 MEMB     5        DOPE     C211     CTL2    -0.180000       12.0110           0
       558 MEMB     5        DOPE     H11R     HAL2     0.900000E-01   1.00800           0
       559 MEMB     5        DOPE     H11S     HAL2     0.900000E-01   1.00800           0
       560 MEMB     5        DOPE     C212     CTL2    -0.180000       12.0110           0
       561 MEMB     5        DOPE     H12R     HAL2     0.900000E-01   1.00800           0
       562 MEMB     5        DOPE     H12S     HAL2     0.900000E-01   1.00800           0
       563 MEMB     5        DOPE     C213     CTL2    -0.180000       12.0110           0
       564 MEMB     5        DOPE     H13R     HAL2     0.900000E-01   1.00800           0
       565 MEMB     5        DOPE     H13S     HAL2     0.900000E-01   1.00800           0
       566 MEMB     5        DOPE     C214     CTL2    -0.180000       12.0110           0
       567 MEMB     5        DOPE     H14R     HAL2     0.900000E-01   1.00800           0
       568 MEMB     5        DOPE     H14S     HAL2     0.900000E-01   1.00800           0
       569 MEMB     5        DOPE     C215     CTL2    -0.180000       12.0110           0
       570 MEMB     5        DOPE     H15R     HAL2     0.900000E-01   1.00800           0
       571 MEMB     5        DOPE     H15S     HAL2     0.900000E-01   1.00800           0
       572 MEMB     5        DOPE     C216     CTL2    -0.180000       12.0110           0
       573 MEMB     5        DOPE     H16R     HAL2     0.900000E-01   1.00800           0
       574 MEMB     5        DOPE     H16S     HAL2     0.900000E-01   1.00800           0
       575 MEMB     5        DOPE     C217     CTL2    -0.180000       12.0110           0
       576 MEMB     5        DOPE     H17R     HAL2     0.900000E-01   1.00800           0
       577 MEMB     5        DOPE     H17S     HAL2     0.900000E-01   1.00800           0
       578 MEMB     5        DOPE     C218     CTL3    -0.270000       12.0110           0
       579 MEMB     5        DOPE     H18R     HAL3     0.900000E-01   1.00800           0
       580 MEMB     5        DOPE     H18S     HAL3     0.900000E-01   1.00800           0
       581 MEMB     5        DOPE     H18T     HAL3     0.900000E-01   1.00800           0
       582 MEMB     5        DOPE     C33      CTL2    -0.180000       12.0110           0
       583 MEMB     5        DOPE     H3X      HAL2     0.900000E-01   1.00800           0
       584 MEMB     5        DOPE     H3Y      HAL2     0.900000E-01   1.00800           0
       585 MEMB     5        DOPE     C34      CTL2    -0.180000       12.0110           0
       586 MEMB     5        DOPE     H4X      HAL2     0.900000E-01   1.00800           0
       587 MEMB     5        DOPE     H4Y      HAL2     0.900000E-01   1.00800           0
       588 MEMB     5        DOPE     C35      CTL2    -0.180000       12.0110           0
       589 MEMB     5        DOPE     H5X      HAL2     0.900000E-01   1.00800           0
       590 MEMB     5        DOPE     H5Y      HAL2     0.900000E-01   1.00800           0
       591 MEMB     5        DOPE     C36      CTL2    -0.180000       12.0110           0
       592 MEMB     5        DOPE     H6X      HAL2     0.900000E-01   1.00800           0
       593 MEMB     5        DOPE     H6Y      HAL2     0.900000E-01   1.00800           0
       594 MEMB     5        DOPE     C37      CTL2    -0.180000       12.0110           0
       595 MEMB     5        DOPE     H7X      HAL2     0.900000E-01   1.00800           0
       596 MEMB     5        DOPE     H7Y      HAL2     0.900000E-01   1.00800           0
       597 MEMB     5        DOPE     C38      CTL2    -0.180000       12.0110           0
       598 MEMB     5        DOPE     H8X      HAL2     0.900000E-01   1.00800           0
       599 MEMB     5        DOPE     H8Y      HAL2     0.900000E-01   1.00800           0
       600 MEMB     5        DOPE     C39      CEL1    -0.150000       12.0110           0
       601 MEMB     5        DOPE     H9X      HEL1     0.150000       1.00800           0
       602 MEMB     5        DOPE     C310     CEL1    -0.150000       12.0110           0
       603 MEMB     5        DOPE     H10X     HEL1     0.150000       1.00800           0
       604 MEMB     5        DOPE     C311     CTL2    -0.180000       12.0110           0
       605 MEMB     5        DOPE     H11X     HAL2     0.900000E-01   1.00800           0
       606 MEMB     5        DOPE     H11Y     HAL2     0.900000E-01   1.00800           0
       607 MEMB     5        DOPE     C312     CTL2    -0.180000       12.0110           0
       608 MEMB     5        DOPE     H12X     HAL2     0.900000E-01   1.00800           0
       609 MEMB     5        DOPE     H12Y     HAL2     0.900000E-01   1.00800           0
       610 MEMB     5        DOPE     C313     CTL2    -0.180000       12.0110           0
       611 MEMB     5        DOPE     H13X     HAL2     0.900000E-01   1.00800           0
       612 MEMB     5        DOPE     H13Y     HAL2     0.900000E-01   1.00800           0
       613 MEMB     5        DOPE     C314     CTL2    -0.180000       12.0110           0
       614 MEMB     5        DOPE     H14X     HAL2     0.900000E-01   1.00800           0
       615 MEMB     5        DOPE     H14Y     HAL2     0.900000E-01   1.00800           0
       616 MEMB     5        DOPE     C315     CTL2    -0.180000       12.0110           0
       617 MEMB     5        DOPE     H15X     HAL2     0.900000E-01   1.00800           0
       618 MEMB     5        DOPE     H15Y     HAL2     0.900000E-01   1.00800           0
       619 MEMB     5        DOPE     C316     CTL2    -0.180000       12.0110           0
       620 MEMB     5        DOPE     H16X     HAL2     0.900000E-01   1.00800           0
       621 MEMB     5        DOPE     H16Y     HAL2     0.900000E-01   1.00800           0
       622 MEMB     5        DOPE     C317     CTL2    -0.180000       12.0110           0
       623 MEMB     5        DOPE     H17X     HAL2     0.900000E-01   1.00800           0
       624 MEMB     5        DOPE     H17Y     HAL2     0.900000E-01   1.00800           0
       625 MEMB     5        DOPE     C318     CTL3    -0.270000       12.0110           0
       626 MEMB     5        DOPE     H18X     HAL3     0.900000E-01   1.00800           0
       627 MEMB     5        DOPE     H18Y     HAL3     0.900000E-01   1.00800           0
       628 MEMB     5        DOPE     H18Z     HAL3     0.900000E-01   1.00800           0
       629 MEMB     6        DOPC     N        NTL     -0.600000       14.0070           0
       630 MEMB     6        DOPC     C12      CTL2    -0.100000       12.0110           0
       631 MEMB     6        DOPC     H12A     HL       0.250000       1.00800           0
       632 MEMB     6        DOPC     H12B     HL       0.250000       1.00800           0
       633 MEMB     6        DOPC     C13      CTL5    -0.350000       12.0110           0
       634 MEMB     6        DOPC     H13A     HL       0.250000       1.00800           0
       635 MEMB     6        DOPC     H13B     HL       0.250000       1.00800           0
       636 MEMB     6        DOPC     H13C     HL       0.250000       1.00800           0
       637 MEMB     6        DOPC     C14      CTL5    -0.350000       12.0110           0
       638 MEMB     6        DOPC     H14A     HL       0.250000       1.00800           0
       639 MEMB     6        DOPC     H14B     HL       0.250000       1.00800           0
       640 MEMB     6        DOPC     H14C     HL       0.250000       1.00800           0
       641 MEMB     6        DOPC     C15      CTL5    -0.350000       12.0110           0
       642 MEMB     6        DOPC     H15A     HL       0.250000       1.00800           0
       643 MEMB     6        DOPC     H15B     HL       0.250000       1.00800           0
       644 MEMB     6        DOPC     H15C     HL       0.250000       1.00800           0
       645 MEMB     6        DOPC     C11      CTL2    -0.800000E-01   12.0110           0
       646 MEMB     6        DOPC     H11A     HAL2     0.900000E-01   1.00800           0
       647 MEMB     6        DOPC     H11B     HAL2     0.900000E-01   1.00800           0
       648 MEMB     6        DOPC     P        PL        1.50000       30.9740           0
       649 MEMB     6        DOPC     O13      O2L     -0.780000       15.9994           0
       650 MEMB     6        DOPC     O14      O2L     -0.780000       15.9994           0
       651 MEMB     6        DOPC     O12      OSLP    -0.570000       15.9994           0
       652 MEMB     6        DOPC     O11      OSLP    -0.570000       15.9994           0
       653 MEMB     6        DOPC     C1       CTL2    -0.800000E-01   12.0110           0
       654 MEMB     6        DOPC     HA       HAL2     0.900000E-01   1.00800           0
       655 MEMB     6        DOPC     HB       HAL2     0.900000E-01   1.00800           0
       656 MEMB     6        DOPC     C2       CTL1     0.170000       12.0110           0
       657 MEMB     6        DOPC     HS       HAL1     0.900000E-01   1.00800           0
       658 MEMB     6        DOPC     O21      OSL     -0.490000       15.9994           0
       659 MEMB     6        DOPC     C21      CL       0.900000       12.0110           0
       660 MEMB     6        DOPC     O22      OBL     -0.630000       15.9994           0
       661 MEMB     6        DOPC     C22      CTL2    -0.220000       12.0110           0
       662 MEMB     6        DOPC     H2R      HAL2     0.900000E-01   1.00800           0
       663 MEMB     6        DOPC     H2S      HAL2     0.900000E-01   1.00800           0
       664 MEMB     6        DOPC     C3       CTL2     0.800000E-01   12.0110           0
       665 MEMB     6        DOPC     HX       HAL2     0.900000E-01   1.00800           0
       666 MEMB     6        DOPC     HY       HAL2     0.900000E-01   1.00800           0
       667 MEMB     6        DOPC     O31      OSL     -0.490000       15.9994           0
       668 MEMB     6        DOPC     C31      CL       0.900000       12.0110           0
       669 MEMB     6        DOPC     O32      OBL     -0.630000       15.9994           0
       670 MEMB     6        DOPC     C32      CTL2    -0.220000       12.0110           0
       671 MEMB     6        DOPC     H2X      HAL2     0.900000E-01   1.00800           0
       672 MEMB     6        DOPC     H2Y      HAL2     0.900000E-01   1.00800           0
       673 MEMB     6        DOPC     C23      CTL2    -0.180000       12.0110           0
       674 MEMB     6        DOPC     H3R      HAL2     0.900000E-01   1.00800           0
       675 MEMB     6        DOPC     H3S      HAL2     0.900000E-01   1.00800           0
       676 MEMB     6        DOPC     C24      CTL2    -0.180000       12.0110           0
       677 MEMB     6        DOPC     H4R      HAL2     0.900000E-01   1.00800           0
       678 MEMB     6        DOPC     H4S      HAL2     0.900000E-01   1.00800           0
       679 MEMB     6        DOPC     C25      CTL2    -0.180000       12.0110           0
       680 MEMB     6        DOPC     H5R      HAL2     0.900000E-01   1.00800           0
       681 MEMB     6        DOPC     H5S      HAL2     0.900000E-01   1.00800           0
       682 MEMB     6        DOPC     C26      CTL2    -0.180000       12.0110           0
       683 MEMB     6        DOPC     H6R      HAL2     0.900000E-01   1.00800           0
       684 MEMB     6        DOPC     H6S      HAL2     0.900000E-01   1.00800           0
       685 MEMB     6        DOPC     C27      CTL2    -0.180000       12.0110           0
       686 MEMB     6        DOPC     H7R      HAL2     0.900000E-01   1.00800           0
       687 MEMB     6        DOPC     H7S      HAL2     0.900000E-01   1.00800           0
       688 MEMB     6        DOPC     C28      CTL2    -0.180000       12.0110           0
       689 MEMB     6        DOPC     H8R      HAL2     0.900000E-01   1.00800           0
       690 MEMB     6        DOPC     H8S      HAL2     0.900000E-01   1.00800           0
       691 MEMB     6        DOPC     C29      CEL1    -0.150000       12.0110           0
       692 MEMB     6        DOPC     H9R      HEL1     0.150000       1.00800           0
       693 MEMB     6        DOPC     C210     CEL1    -0.150000       12.0110           0
       694 MEMB     6        DOPC     H10R     HEL1     0.150000       1.00800           0
       695 MEMB     6        DOPC     C211     CTL2    -0.180000       12.0110           0
       696 MEMB     6        DOPC     H11R     HAL2     0.900000E-01   1.00800           0
       697 MEMB     6        DOPC     H11S     HAL2     0.900000E-01   1.00800           0
       698 MEMB     6        DOPC     C212     CTL2    -0.180000       12.0110           0
       699 MEMB     6        DOPC     H12R     HAL2     0.900000E-01   1.00800           0
       700 MEMB     6        DOPC     H12S     HAL2     0.900000E-01   1.00800           0
       701 MEMB     6        DOPC     C213     CTL2    -0.180000       12.0110           0
       702 MEMB     6        DOPC     H13R     HAL2     0.900000E-01   1.00800           0
       703 MEMB     6        DOPC     H13S     HAL2     0.900000E-01   1.00800           0
       704 MEMB     6        DOPC     C214     CTL2    -0.180000       12.0110           0
       705 MEMB     6        DOPC     H14R     HAL2     0.900000E-01   1.00800           0
       706 MEMB     6        DOPC     H14S     HAL2     0.900000E-01   1.00800           0
       707 MEMB     6        DOPC     C215     CTL2    -0.180000       12.0110           0
       708 MEMB     6        DOPC     H15R     HAL2     0.900000E-01   1.00800           0
       709 MEMB     6        DOPC     H15S     HAL2     0.900000E-01   1.00800           0
       710 MEMB     6        DOPC     C216     CTL2    -0.180000       12.0110           0
       711 MEMB     6        DOPC     H16R     HAL2     0.900000E-01   1.00800           0
       712 MEMB     6        DOPC     H16S     HAL2     0.900000E-01   1.00800           0
       713 MEMB     6        DOPC     C217     CTL2    -0.180000       12.0110           0
       714 MEMB     6        DOPC     H17R     HAL2     0.900000E-01   1.00800           0
       715 MEMB     6        DOPC     H17S     HAL2     0.900000E-01   1.00800           0
       716 MEMB     6        DOPC     C218     CTL3    -0.270000       12.0110           0
       717 MEMB     6        DOPC     H18R     HAL3     0.900000E-01   1.00800           0
       718 MEMB     6        DOPC     H18S     HAL3     0.900000E-01   1.00800           0
       719 MEMB     6        DOPC     H18T     HAL3     0.900000E-01   1.00800           0
       720 MEMB     6        DOPC     C33      CTL2    -0.180000       12.0110           0
       721 MEMB     6        DOPC     H3X      HAL2     0.900000E-01   1.00800           0
       722 MEMB     6        DOPC     H3Y      HAL2     0.900000E-01   1.00800           0
       723 MEMB     6        DOPC     C34      CTL2    -0.180000       12.0110           0
       724 MEMB     6        DOPC     H4X      HAL2     0.900000E-01   1.00800           0
       725 MEMB     6        DOPC     H4Y      HAL2     0.900000E-01   1.00800           0
       726 MEMB     6        DOPC     C35      CTL2    -0.180000       12.0110           0
       727 MEMB     6        DOPC     H5X      HAL2     0.900000E-01   1.00800           0
       728 MEMB     6        DOPC     H5Y      HAL2     0.900000E-01   1.00800           0
       729 MEMB     6        DOPC     C36      CTL2    -0.180000       12.0110           0
       730 MEMB     6        DOPC     H6X      HAL2     0.900000E-01   1.00800           0
       731 MEMB     6        DOPC     H6Y      HAL2     0.900000E-01   1.00800           0
       732 MEMB     6        DOPC     C37      CTL2    -0.180000       12.0110           0
       733 MEMB     6        DOPC     H7X      HAL2     0.900000E-01   1.00800           0
       734 MEMB     6        DOPC     H7Y      HAL2     0.900000E-01   1.00800           0
       735 MEMB     6        DOPC     C38      CTL2    -0.180000       12.0110           0
       736 MEMB     6        DOPC     H8X      HAL2     0.900000E-01   1.00800           0
       737 MEMB     6        DOPC     H8Y      HAL2     0.900000E-01   1.00800           0
       738 MEMB     6        DOPC     C39      CEL1    -0.150000       12.0110           0
       739 MEMB     6        DOPC     H9X      HEL1     0.150000       1.00800           0
       740 MEMB     6        DOPC     C310     CEL1    -0.150000       12.0110           0
       741 MEMB     6        DOPC     H10X     HEL1     0.150000       1.00800           0
       742 MEMB     6        DOPC     C311     CTL2    -0.180000       12.0110           0
       743 MEMB     6        DOPC     H11X     HAL2     0.900000E-01   1.00800           0
       744 MEMB     6        DOPC     H11Y     HAL2     0.900000E-01   1.00800           0
       745 MEMB     6        DOPC     C312     CTL2    -0.180000       12.0110           0
       746 MEMB     6        DOPC     H12X     HAL2     0.900000E-01   1.00800           0
       747 MEMB     6        DOPC     H12Y     HAL2     0.900000E-01   1.00800           0
       748 MEMB     6        DOPC     C313     CTL2    -0.180000       12.0110           0
       749 MEMB     6        DOPC     H13X     HAL2     0.900000E-01   1.00800           0
       750 MEMB     6        DOPC     H13Y     HAL2     0.900000E-01   1.00800           0
       751 MEMB     6        DOPC     C314     CTL2    -0.180000       12.0110           0
       752 MEMB     6        DOPC     H14X     HAL2     0.900000E-01   1.00800           0
       753 MEMB     6        DOPC     H14Y     HAL2     0.900000E-01   1.00800           0
       754 MEMB     6        DOPC     C315     CTL2    -0.180000       12.0110           0
       755 MEMB     6        DOPC     H15X     HAL2     0.900000E-01   1.00800           0
       756 MEMB     6        DOPC     H15Y     HAL2     0.900000E-01   1.00800           0
       757 MEMB     6        DOPC     C316     CTL2    -0.180000       12.0110           0
       758 MEMB     6        DOPC     H16X     HAL2     0.900000E-01   1.00800           0
       759 MEMB     6        DOPC     H16Y     HAL2     0.900000E-01   1.00800           0
       760 MEMB     6        DOPC     C317     CTL2    -0.180000       12.0110           0
       761 MEMB     6        DOPC     H17X     HAL2     0.900000E-01   1.00800           0
       762 MEMB     6        DOPC     H17Y     HAL2     0.900000E-01   1.00800           0
       763 MEMB     6        DOPC     C318     CTL3    -0.270000       12.0110           0
       764 MEMB     6        DOPC     H18X     HAL3     0.900000E-01   1.00800           0
       765 MEMB     6        DOPC     H18Y     HAL3     0.900000E-01   1.00800           0
       766 MEMB     6        DOPC     H18Z     HAL3     0.900000E-01   1.00800           0
       767 MEMB     7        DOPC     N        NTL     -0.600000       14.0070           0
       768 MEMB     7        DOPC     C12      CTL2    -0.100000       12.0110           0
       769 MEMB     7        DOPC     H12A     HL       0.250000       1.00800           0
       770 MEMB     7        DOPC     H12B     HL       0.250000       1.00800           0
       771 MEMB     7        DOPC     C13      CTL5    -0.350000       12.0110           0
       772 MEMB     7        DOPC     H13A     HL       0.250000       1.00800           0
       773 MEMB     7        DOPC     H13B     HL       0.250000       1.00800           0
       774 MEMB     7        DOPC     H13C     HL       0.250000       1.00800           0
       775 MEMB     7        DOPC     C14      CTL5    -0.350000       12.0110           0
       776 MEMB     7        DOPC     H14A     HL       0.250000       1.00800           0
       777 MEMB     7        DOPC     H14B     HL       0.250000       1.00800           0
       778 MEMB     7        DOPC     H14C     HL       0.250000       1.00800           0
       779 MEMB     7        DOPC     C15      CTL5    -0.350000       12.0110           0
       780 MEMB     7        DOPC     H15A     HL       0.250000       1.00800           0
       781 MEMB     7        DOPC     H15B     HL       0.250000       1.00800           0
       782 MEMB     7        DOPC     H15C     HL       0.250000       1.00800           0
       783 MEMB     7        DOPC     C11      CTL2    -0.800000E-01   12.0110           0
       784 MEMB     7        DOPC     H11A     HAL2     0.900000E-01   1.00800           0
       785 MEMB     7        DOPC     H11B     HAL2     0.900000E-01   1.00800           0
       786 MEMB     7        DOPC     P        PL        1.50000       30.9740           0
       787 MEMB     7        DOPC     O13      O2L     -0.780000       15.9994           0
       788 MEMB     7        DOPC     O14      O2L     -0.780000       15.9994           0
       789 MEMB     7        DOPC     O12      OSLP    -0.570000       15.9994           0
       790 MEMB     7        DOPC     O11      OSLP    -0.570000       15.9994           0
       791 MEMB     7        DOPC     C1       CTL2    -0.800000E-01   12.0110           0
       792 MEMB     7        DOPC     HA       HAL2     0.900000E-01   1.00800           0
       793 MEMB     7        DOPC     HB       HAL2     0.900000E-01   1.00800           0
       794 MEMB     7        DOPC     C2       CTL1     0.170000       12.0110           0
       795 MEMB     7        DOPC     HS       HAL1     0.900000E-01   1.00800           0
       796 MEMB     7        DOPC     O21      OSL     -0.490000       15.9994           0
       797 MEMB     7        DOPC     C21      CL       0.900000       12.0110           0
       798 MEMB     7        DOPC     O22      OBL     -0.630000       15.9994           0
       799 MEMB     7        DOPC     C22      CTL2    -0.220000       12.0110           0
       800 MEMB     7        DOPC     H2R      HAL2     0.900000E-01   1.00800           0
       801 MEMB     7        DOPC     H2S      HAL2     0.900000E-01   1.00800           0
       802 MEMB     7        DOPC     C3       CTL2     0.800000E-01   12.0110           0
       803 MEMB     7        DOPC     HX       HAL2     0.900000E-01   1.00800           0
       804 MEMB     7        DOPC     HY       HAL2     0.900000E-01   1.00800           0
       805 MEMB     7        DOPC     O31      OSL     -0.490000       15.9994           0
       806 MEMB     7        DOPC     C31      CL       0.900000       12.0110           0
       807 MEMB     7        DOPC     O32      OBL     -0.630000       15.9994           0
       808 MEMB     7        DOPC     C32      CTL2    -0.220000       12.0110           0
       809 MEMB     7        DOPC     H2X      HAL2     0.900000E-01   1.00800           0
       810 MEMB     7        DOPC     H2Y      HAL2     0.900000E-01   1.00800           0
       811 MEMB     7        DOPC     C23      CTL2    -0.180000       12.0110           0
       812 MEMB     7        DOPC     H3R      HAL2     0.900000E-01   1.00800           0
       813 MEMB     7        DOPC     H3S      HAL2     0.900000E-01   1.00800           0
       814 MEMB     7        DOPC     C24      CTL2    -0.180000       12.0110           0
       815 MEMB     7        DOPC     H4R      HAL2     0.900000E-01   1.00800           0
       816 MEMB     7        DOPC     H4S      HAL2     0.900000E-01   1.00800           0
       817 MEMB     7        DOPC     C25      CTL2    -0.180000       12.0110           0
       818 MEMB     7        DOPC     H5R      HAL2     0.900000E-01   1.00800           0
       819 MEMB     7        DOPC     H5S      HAL2     0.900000E-01   1.00800           0
       820 MEMB     7        DOPC     C26      CTL2    -0.180000       12.0110           0
       821 MEMB     7        DOPC     H6R      HAL2     0.900000E-01   1.00800           0
       822 MEMB     7        DOPC     H6S      HAL2     0.900000E-01   1.00800           0
       823 MEMB     7        DOPC     C27      CTL2    -0.180000       12.0110           0
       824 MEMB     7        DOPC     H7R      HAL2     0.900000E-01   1.00800           0
       825 MEMB     7        DOPC     H7S      HAL2     0.900000E-01   1.00800           0
       826 MEMB     7        DOPC     C28      CTL2    -0.180000       12.0110           0
       827 MEMB     7        DOPC     H8R      HAL2     0.900000E-01   1.00800           0
       828 MEMB     7        DOPC     H8S      HAL2     0.900000E-01   1.00800           0
       829 MEMB     7        DOPC     C29      CEL1    -0.150000       12.0110           0
       830 MEMB     7        DOPC     H9R      HEL1     0.150000       1.00800           0
       831 MEMB     7        DOPC     C210     CEL1    -0.150000       12.0110           0
       832 MEMB     7        DOPC     H10R     HEL1     0.150000       1.00800           0
       833 MEMB     7        DOPC     C211     CTL2    -0.180000       12.0110           0
       834 MEMB     7        DOPC     H11R     HAL2     0.900000E-01   1.00800           0
       835 MEMB     7        DOPC     H11S     HAL2     0.900000E-01   1.00800           0
       836 MEMB     7        DOPC     C212     CTL2    -0.180000       12.0110           0
       837 MEMB     7        DOPC     H12R     HAL2     0.900000E-01   1.00800           0
       838 MEMB     7        DOPC     H12S     HAL2     0.900000E-01   1.00800           0
       839 MEMB     7        DOPC     C213     CTL2    -0.180000       12.0110           0
       840 MEMB     7        DOPC     H13R     HAL2     0.900000E-01   1.00800           0
       841 MEMB     7        DOPC     H13S     HAL2     0.900000E-01   1.00800           0
       842 MEMB     7        DOPC     C214     CTL2    -0.180000       12.0110           0
       843 MEMB     7        DOPC     H14R     HAL2     0.900000E-01   1.00800           0
       844 MEMB     7        DOPC     H14S     HAL2     0.900000E-01   1.00800           0
       845 MEMB     7        DOPC     C215     CTL2    -0.180000       12.0110           0
       846 MEMB     7        DOPC     H15R     HAL2     0.900000E-01   1.00800           0
       847 MEMB     7        DOPC     H15S     HAL2     0.900000E-01   1.00800           0
       848 MEMB     7        DOPC     C216     CTL2    -0.180000       12.0110           0
       849 MEMB     7        DOPC     H16R     HAL2     0.900000E-01   1.00800           0
       850 MEMB     7        DOPC     H16S     HAL2     0.900000E-01   1.00800           0
       851 MEMB     7        DOPC     C217     CTL2    -0.180000       12.0110           0
       852 MEMB     7        DOPC     H17R     HAL2     0.900000E-01   1.00800           0
       853 MEMB     7        DOPC     H17S     HAL2     0.900000E-01   1.00800           0
       854 MEMB     7        DOPC     C218     CTL3    -0.270000       12.0110           0
       855 MEMB     7        DOPC     H18R     HAL3     0.900000E-01   1.00800           0
       856 MEMB     7        DOPC     H18S     HAL3     0.900000E-01   1.00800           0
       857 MEMB     7        DOPC     H18T     HAL3     0.900000E-01   1.00800           0
       858 MEMB     7        DOPC     C33      CTL2    -0.180000       12.0110           0
       859 MEMB     7        DOPC     H3X      HAL2     0.900000E-01   1.00800           0
       860 MEMB     7        DOPC     H3Y      HAL2     0.900000E-01   1.00800           0
       861 MEMB     7        DOPC     C34      CTL2    -0.180000       12.0110           0
       862 MEMB     7        DOPC     H4X      HAL2     0.900000E-01   1.00800           0
       863 MEMB     7        DOPC     H4Y      HAL2     0.900000E-01   1.00800           0
       864 MEMB     7        DOPC     C35      CTL2    -0.180000       12.0110           0
       865 MEMB     7        DOPC     H5X      HAL2     0.900000E-01   1.00800           0
       866 MEMB     7        DOPC     H5Y      HAL2     0.900000E-01   1.00800           0
       867 MEMB     7        DOPC     C36      CTL2    -0.180000       12.0110           0
       868 MEMB     7        DOPC     H6X      HAL2     0.900000E-01   1.00800           0
       869 MEMB     7        DOPC     H6Y      HAL2     0.900000E-01   1.00800           0
       870 MEMB     7        DOPC     C37      CTL2    -0.180000       12.0110           0
       871 MEMB     7        DOPC     H7X      HAL2     0.900000E-01   1.00800           0
       872 MEMB     7        DOPC     H7Y      HAL2     0.900000E-01   1.00800           0
       873 MEMB     7        DOPC     C38      CTL2    -0.180000       12.0110           0
       874 MEMB     7        DOPC     H8X      HAL2     0.900000E-01   1.00800           0
       875 MEMB     7        DOPC     H8Y      HAL2     0.900000E-01   1.00800           0
       876 MEMB     7        DOPC     C39      CEL1    -0.150000       12.0110           0
       877 MEMB     7        DOPC     H9X      HEL1     0.150000       1.00800           0
       878 MEMB     7        DOPC     C310     CEL1    -0.150000       12.0110           0
       879 MEMB     7        DOPC     H10X     HEL1     0.150000       1.00800           0
       880 MEMB     7        DOPC     C311     CTL2    -0.180000       12.0110           0
       881 MEMB     7        DOPC     H11X     HAL2     0.900000E-01   1.00800           0
       882 MEMB     7        DOPC     H11Y     HAL2     0.900000E-01   1.00800           0
       883 MEMB     7        DOPC     C312     CTL2    -0.180000       12.0110           0
       884 MEMB     7        DOPC     H12X     HAL2     0.900000E-01   1.00800           0
       885 MEMB     7        DOPC     H12Y     HAL2     0.900000E-01   1.00800           0
       886 MEMB     7        DOPC     C313     CTL2    -0.180000       12.0110           0
       887 MEMB     7        DOPC     H13X     HAL2     0.900000E-01   1.00800           0
       888 MEMB     7        DOPC     H13Y     HAL2     0.900000E-01   1.00800           0
       889 MEMB     7        DOPC     C314     CTL2    -0.180000       12.0110           0
       890 MEMB     7        DOPC     H14X     HAL2     0.900000E-01   1.00800           0
       891 MEMB     7        DOPC     H14Y     HAL2     0.900000E-01   1.00800           0
       892 MEMB     7        DOPC     C315     CTL2    -0.180000       12.0110           0
       893 MEMB     7        DOPC     H15X     HAL2     0.900000E-01   1.00800           0
       894 MEMB     7        DOPC     H15Y     HAL2     0.900000E-01   1.00800           0
       895 MEMB     7        DOPC     C316     CTL2    -0.180000       12.0110           0
       896 MEMB     7        DOPC     H16X     HAL2     0.900000E-01   1.00800           0
       897 MEMB     7        DOPC     H16Y     HAL2     0.900000E-01   1.00800           0
       898 MEMB     7        DOPC     C317     CTL2    -0.180000       12.0110           0
       899 MEMB     7        DOPC     H17X     HAL2     0.900000E-01   1.00800           0
       900 MEMB     7        DOPC     H17Y     HAL2     0.900000E-01   1.00800           0
       901 MEMB     7        DOPC     C318     CTL3    -0.270000       12.0110           0
       902 MEMB     7        DOPC     H18X     HAL3     0.900000E-01   1.00800           0
       903 MEMB     7        DOPC     H18Y     HAL3     0.900000E-01   1.00800           0
       904 MEMB     7        DOPC     H18Z     HAL3     0.900000E-01   1.00800           0
       905 MEMB     8        DOPC     N        NTL     -0.600000       14.0070           0
       906 MEMB     8        DOPC     C12      CTL2    -0.100000       12.0110           0
       907 MEMB     8        DOPC     H12A     HL       0.250000       1.00800           0
       908 MEMB     8        DOPC     H12B     HL       0.250000       1.00800           0
       909 MEMB     8        DOPC     C13      CTL5    -0.350000       12.0110           0
       910 MEMB     8        DOPC     H13A     HL       0.250000       1.00800           0
       911 MEMB     8        DOPC     H13B     HL       0.250000       1.00800           0
       912 MEMB     8        DOPC     H13C     HL       0.250000       1.00800           0
       913 MEMB     8        DOPC     C14      CTL5    -0.350000       12.0110           0
       914 MEMB     8        DOPC     H14A     HL       0.250000       1.00800           0
       915 MEMB     8        DOPC     H14B     HL       0.250000       1.00800           0
       916 MEMB     8        DOPC     H14C     HL       0.250000       1.00800           0
       917 MEMB     8        DOPC     C15      CTL5    -0.350000       12.0110           0
       918 MEMB     8        DOPC     H15A     HL       0.250000       1.00800           0
       919 MEMB     8        DOPC     H15B     HL       0.250000       1.00800           0
       920 MEMB     8        DOPC     H15C     HL       0.250000       1.00800           0
       921 MEMB     8        DOPC     C11      CTL2    -0.800000E-01   12.0110           0
       922 MEMB     8        DOPC     H11A     HAL2     0.900000E-01   1.00800           0
       923 MEMB     8        DOPC     H11B     HAL2     0.900000E-01   1.00800           0
       924 MEMB     8        DOPC     P        PL        1.50000       30.9740           0
       925 MEMB     8        DOPC     O13      O2L     -0.780000       15.9994           0
       926 MEMB     8        DOPC     O14      O2L     -0.780000       15.9994           0
       927 MEMB     8        DOPC     O12      OSLP    -0.570000       15.9994           0
       928 MEMB     8        DOPC     O11      OSLP    -0.570000       15.9994           0
       929 MEMB     8        DOPC     C1       CTL2    -0.800000E-01   12.0110           0
       930 MEMB     8        DOPC     HA       HAL2     0.900000E-01   1.00800           0
       931 MEMB     8        DOPC     HB       HAL2     0.900000E-01   1.00800           0
       932 MEMB     8        DOPC     C2       CTL1     0.170000       12.0110           0
       933 MEMB     8        DOPC     HS       HAL1     0.900000E-01   1.00800           0
       934 MEMB     8        DOPC     O21      OSL     -0.490000       15.9994           0
       935 MEMB     8        DOPC     C21      CL       0.900000       12.0110           0
       936 MEMB     8        DOPC     O22      OBL     -0.630000       15.9994           0
       937 MEMB     8        DOPC     C22      CTL2    -0.220000       12.0110           0
       938 MEMB     8        DOPC     H2R      HAL2     0.900000E-01   1.00800           0
       939 MEMB     8        DOPC     H2S      HAL2     0.900000E-01   1.00800           0
       940 MEMB     8        DOPC     C3       CTL2     0.800000E-01   12.0110           0
       941 MEMB     8        DOPC     HX       HAL2     0.900000E-01   1.00800           0
       942 MEMB     8        DOPC     HY       HAL2     0.900000E-01   1.00800           0
       943 MEMB     8        DOPC     O31      OSL     -0.490000       15.9994           0
       944 MEMB     8        DOPC     C31      CL       0.900000       12.0110           0
       945 MEMB     8        DOPC     O32      OBL     -0.630000       15.9994           0
       946 MEMB     8        DOPC     C32      CTL2    -0.220000       12.0110           0
       947 MEMB     8        DOPC     H2X      HAL2     0.900000E-01   1.00800           0
       948 MEMB     8        DOPC     H2Y      HAL2     0.900000E-01   1.00800           0
       949 MEMB     8        DOPC     C23      CTL2    -0.180000       12.0110           0
       950 MEMB     8        DOPC     H3R      HAL2     0.900000E-01   1.00800           0
       951 MEMB     8        DOPC     H3S      HAL2     0.900000E-01   1.00800           0
       952 MEMB     8        DOPC     C24      CTL2    -0.180000       12.0110           0
       953 MEMB     8        DOPC     H4R      HAL2     0.900000E-01   1.00800           0
       954 MEMB     8        DOPC     H4S      HAL2     0.900000E-01   1.00800           0
       955 MEMB     8        DOPC     C25      CTL2    -0.180000       12.0110           0
       956 MEMB     8        DOPC     H5R      HAL2     0.900000E-01   1.00800           0
       957 MEMB     8        DOPC     H5S      HAL2     0.900000E-01   1.00800           0
       958 MEMB     8        DOPC     C26      CTL2    -0.180000       12.0110           0
       959 MEMB     8        DOPC     H6R      HAL2     0.900000E-01   1.00800           0
       960 MEMB     8        DOPC     H6S      HAL2     0.900000E-01   1.00800           0
       961 MEMB     8        DOPC     C27      CTL2    -0.180000       12.0110           0
       962 MEMB     8        DOPC     H7R      HAL2     0.900000E-01   1.00800           0
       963 MEMB     8        DOPC     H7S      HAL2     0.900000E-01   1.00800           0
       964 MEMB     8        DOPC     C28      CTL2    -0.180000       12.0110           0
       965 MEMB     8        DOPC     H8R      HAL2     0.900000E-01   1.00800           0
       966 MEMB     8        DOPC     H8S      HAL2     0.900000E-01   1.00800           0
       967 MEMB     8        DOPC     C29      CEL1    -0.150000       12.0110           0
       968 MEMB     8        DOPC     H9R      HEL1     0.150000       1.00800           0
       969 MEMB     8        DOPC     C210     CEL1    -0.150000       12.0110           0
       970 MEMB     8        DOPC     H10R     HEL1     0.150000       1.00800           0
       971 MEMB     8        DOPC     C211     CTL2    -0.180000       12.0110           0
       972 MEMB     8        DOPC     H11R     HAL2     0.900000E-01   1.00800           0
       973 MEMB     8        DOPC     H11S     HAL2     0.900000E-01   1.00800           0
       974 MEMB     8        DOPC     C212     CTL2    -0.180000       12.0110           0
       975 MEMB     8        DOPC     H12R     HAL2     0.900000E-01   1.00800           0
       976 MEMB     8        DOPC     H12S     HAL2     0.900000E-01   1.00800           0
       977 MEMB     8        DOPC     C213     CTL2    -0.180000       12.0110           0
       978 MEMB     8        DOPC     H13R     HAL2     0.900000E-01   1.00800           0
       979 MEMB     8        DOPC     H13S     HAL2     0.900000E-01   1.00800           0
       980 MEMB     8        DOPC     C214     CTL2    -0.180000       12.0110           0
       981 MEMB     8        DOPC     H14R     HAL2     0.900000E-01   1.00800           0
       982 MEMB     8        DOPC     H14S     HAL2     0.900000E-01   1.00800           0
       983 MEMB     8        DOPC     C215     CTL2    -0.180000       12.0110           0
       984 MEMB     8        DOPC     H15R     HAL2     0.900000E-01   1.00800           0
       985 MEMB     8        DOPC     H15S     HAL2     0.900000E-01   1.00800           0
       986 MEMB     8        DOPC     C216     CTL2    -0.180000       12.0110           0
       987 MEMB     8        DOPC     H16R     HAL2     0.900000E-01   1.00800           0
       988 MEMB     8        DOPC     H16S     HAL2     0.900000E-01   1.00800           0
       989 MEMB     8        DOPC     C217     CTL2    -0.180000       12.0110           0
       990 MEMB     8        DOPC     H17R     HAL2     0.900000E-01   1.00800           0
       991 MEMB     8        DOPC     H17S     HAL2     0.900000E-01   1.00800           0
       992 MEMB     8        DOPC     C218     CTL3    -0.270000       12.0110           0
       993 MEMB     8        DOPC     H18R     HAL3     0.900000E-01   1.00800           0
       994 MEMB     8        DOPC     H18S     HAL3     0.900000E-01   1.00800           0
       995 MEMB     8        DOPC     H18T     HAL3     0.900000E-01   1.00800           0
       996 MEMB     8        DOPC     C33      CTL2    -0.180000       12.0110           0
       997 MEMB     8        DOPC     H3X      HAL2     0.900000E-01   1.00800           0
       998 MEMB     8        DOPC     H3Y      HAL2     0.900000E-01   1.00800           0
       999 MEMB     8        DOPC     C34      CTL2    -0.180000       12.0110           0
      1000 MEMB     8        DOPC     H4X      HAL2     0.900000E-01   1.00800           0
      1001 MEMB     8        DOPC     H4Y      HAL2     0.900000E-01   1.00800           0
      1002 MEMB     8        DOPC     C35      CTL2    -0.180000       12.0110           0
      1003 MEMB     8        DOPC     H5X      HAL2     0.900000E-01   1.00800           0
      1004 MEMB     8        DOPC     H5Y      HAL2     0.900000E-01   1.00800           0
      1005 MEMB     8        DOPC     C36      CTL2    -0.180000       12.0110           0
      1006 MEMB     8        DOPC     H6X      HAL2     0.900000E-01   1.00800           0
      1007 MEMB     8        DOPC     H6Y      HAL2     0.900000E-01   1.00800           0
      1008 MEMB     8        DOPC     C37      CTL2    -0.180000       12.0110           0
      1009 MEMB     8        DOPC     H7X      HAL2     0.900000E-01   1.00800           0
      1010 MEMB     8        DOPC     H7Y      HAL2     0.900000E-01   1.00800           0
      1011 MEMB     8        DOPC     C38      CTL2    -0.180000       12.0110           0
      1012 MEMB     8        DOPC     H8X      HAL2     0.900000E-01   1.00800           0
      1013 MEMB     8        DOPC     H8Y      HAL2     0.900000E-01   1.00800           0
      1014 MEMB     8        DOPC     C39      CEL1    -0.150000       12.0110           0
      1015 MEMB     8        DOPC     H9X      HEL1     0.150000       1.00800           0
      1016 MEMB     8        DOPC     C310     CEL1    -0.150000       12.0110           0
      1017 MEMB     8        DOPC     H10X     HEL1     0.150000       1.00800           0
      1018 MEMB     8        DOPC     C311     CTL2    -0.180000       12.0110           0
      1019 MEMB     8        DOPC     H11X     HAL2     0.900000E-01   1.00800           0
      1020 MEMB     8        DOPC     H11Y     HAL2     0.900000E-01   1.00800           0
      1021 MEMB     8        DOPC     C312     CTL2    -0.180000       12.0110           0
      1022 MEMB     8        DOPC     H12X     HAL2     0.900000E-01   1.00800           0
      1023 MEMB     8        DOPC     H12Y     HAL2     0.900000E-01   1.00800           0
      1024 MEMB     8        DOPC     C313     CTL2    -0.180000       12.0110           0
      1025 MEMB     8        DOPC     H13X     HAL2     0.900000E-01   1.00800           0
      1026 MEMB     8        DOPC     H13Y     HAL2     0.900000E-01   1.00800           0
      1027 MEMB     8        DOPC     C314     CTL2    -0.180000       12.0110           0
      1028 MEMB     8        DOPC     H14X     HAL2     0.900000E-01   1.00800           0
      1029 MEMB     8        DOPC     H14Y     HAL2     0.900000E-01   1.00800           0
      1030 MEMB     8        DOPC     C315     CTL2    -0.180000       12.0110           0
      1031 MEMB     8        DOPC     H15X     HAL2     0.900000E-01   1.00800           0
      1032 MEMB     8        DOPC     H15Y     HAL2     0.900000E-01   1.00800           0
      1033 MEMB     8        DOPC     C316     CTL2    -0.180000       12.0110           0
      1034 MEMB     8        DOPC     H16X     HAL2     0.900000E-01   1.00800           0
      1035 MEMB     8        DOPC     H16Y     HAL2     0.900000E-01   1.00800           0
      1036 MEMB     8        DOPC     C317     CTL2    -0.180000       12.0110           0
      1037 MEMB     8        DOPC     H17X     HAL2     0.900000E-01   1.00800           0
      1038 MEMB     8        DOPC     H17Y     HAL2     0.900000E-01   1.00800           0
      1039 MEMB     8        DOPC     C318     CTL3    -0.270000       12.0110           0
      1040 MEMB     8        DOPC     H18X     HAL3     0.900000E-01   1.00800           0
      1041 MEMB     8        DOPC     H18Y     HAL3     0.900000E-01   1.00800           0
      1042 MEMB     8        DOPC     H18Z     HAL3     0.900000E-01   1.00800           0
      1043 MEMB     9        DOPE     N        NH3L    -0.300000       14.0070           0
      1044 MEMB     9        DOPE     HN1      HCL      0.330000       1.00800           0
      1045 MEMB     9        DOPE     HN2      HCL      0.330000       1.00800           0
      1046 MEMB     9        DOPE     HN3      HCL      0.330000       1.00800           0
      1047 MEMB     9        DOPE     C12      CTL2     0.130000       12.0110           0
      1048 MEMB     9        DOPE     H12A     HAL2     0.900000E-01   1.00800           0
      1049 MEMB     9        DOPE     H12B     HAL2     0.900000E-01   1.00800           0
      1050 MEMB     9        DOPE     C11      CTL2    -0.800000E-01   12.0110           0
      1051 MEMB     9        DOPE     H11A     HAL2     0.900000E-01   1.00800           0
      1052 MEMB     9        DOPE     H11B     HAL2     0.900000E-01   1.00800           0
      1053 MEMB     9        DOPE     P        PL        1.50000       30.9740           0
      1054 MEMB     9        DOPE     O13      O2L     -0.780000       15.9994           0
      1055 MEMB     9        DOPE     O14      O2L     -0.780000       15.9994           0
      1056 MEMB     9        DOPE     O11      OSLP    -0.570000       15.9994           0
      1057 MEMB     9        DOPE     O12      OSLP    -0.570000       15.9994           0
      1058 MEMB     9        DOPE     C1       CTL2    -0.800000E-01   12.0110           0
      1059 MEMB     9        DOPE     HA       HAL2     0.900000E-01   1.00800           0
      1060 MEMB     9        DOPE     HB       HAL2     0.900000E-01   1.00800           0
      1061 MEMB     9        DOPE     C2       CTL1     0.170000       12.0110           0
      1062 MEMB     9        DOPE     HS       HAL1     0.900000E-01   1.00800           0
      1063 MEMB     9        DOPE     O21      OSL     -0.490000       15.9994           0
      1064 MEMB     9        DOPE     C21      CL       0.900000       12.0110           0
      1065 MEMB     9        DOPE     O22      OBL     -0.630000       15.9994           0
      1066 MEMB     9        DOPE     C22      CTL2    -0.220000       12.0110           0
      1067 MEMB     9        DOPE     H2R      HAL2     0.900000E-01   1.00800           0
      1068 MEMB     9        DOPE     H2S      HAL2     0.900000E-01   1.00800           0
      1069 MEMB     9        DOPE     C3       CTL2     0.800000E-01   12.0110           0
      1070 MEMB     9        DOPE     HX       HAL2     0.900000E-01   1.00800           0
      1071 MEMB     9        DOPE     HY       HAL2     0.900000E-01   1.00800           0
      1072 MEMB     9        DOPE     O31      OSL     -0.490000       15.9994           0
      1073 MEMB     9        DOPE     C31      CL       0.900000       12.0110           0
      1074 MEMB     9        DOPE     O32      OBL     -0.630000       15.9994           0
      1075 MEMB     9        DOPE     C32      CTL2    -0.220000       12.0110           0
      1076 MEMB     9        DOPE     H2X      HAL2     0.900000E-01   1.00800           0
      1077 MEMB     9        DOPE     H2Y      HAL2     0.900000E-01   1.00800           0
      1078 MEMB     9        DOPE     C23      CTL2    -0.180000       12.0110           0
      1079 MEMB     9        DOPE     H3R      HAL2     0.900000E-01   1.00800           0
      1080 MEMB     9        DOPE     H3S      HAL2     0.900000E-01   1.00800           0
      1081 MEMB     9        DOPE     C24      CTL2    -0.180000       12.0110           0
      1082 MEMB     9        DOPE     H4R      HAL2     0.900000E-01   1.00800           0
      1083 MEMB     9        DOPE     H4S      HAL2     0.900000E-01   1.00800           0
      1084 MEMB     9        DOPE     C25      CTL2    -0.180000       12.0110           0
      1085 MEMB     9        DOPE     H5R      HAL2     0.900000E-01   1.00800           0
      1086 MEMB     9        DOPE     H5S      HAL2     0.900000E-01   1.00800           0
      1087 MEMB     9        DOPE     C26      CTL2    -0.180000       12.0110           0
      1088 MEMB     9        DOPE     H6R      HAL2     0.900000E-01   1.00800           0
      1089 MEMB     9        DOPE     H6S      HAL2     0.900000E-01   1.00800           0
      1090 MEMB     9        DOPE     C27      CTL2    -0.180000       12.0110           0
      1091 MEMB     9        DOPE     H7R      HAL2     0.900000E-01   1.00800           0
      1092 MEMB     9        DOPE     H7S      HAL2     0.900000E-01   1.00800           0
      1093 MEMB     9        DOPE     C28      CTL2    -0.180000       12.0110           0
      1094 MEMB     9        DOPE     H8R      HAL2     0.900000E-01   1.00800           0
      1095 MEMB     9        DOPE     H8S      HAL2     0.900000E-01   1.00800           0
      1096 MEMB     9        DOPE     C29      CEL1    -0.150000       12.0110           0
      1097 MEMB     9        DOPE     H9R      HEL1     0.150000       1.00800           0
      1098 MEMB     9        DOPE     C210     CEL1    -0.150000       12.0110           0
      1099 MEMB     9        DOPE     H10R     HEL1     0.150000       1.00800           0
      1100 MEMB     9        DOPE     C211     CTL2    -0.180000       12.0110           0
      1101 MEMB     9        DOPE     H11R     HAL2     0.900000E-01   1.00800           0
      1102 MEMB     9        DOPE     H11S     HAL2     0.900000E-01   1.00800           0
      1103 MEMB     9        DOPE     C212     CTL2    -0.180000       12.0110           0
      1104 MEMB     9        DOPE     H12R     HAL2     0.900000E-01   1.00800           0
      1105 MEMB     9        DOPE     H12S     HAL2     0.900000E-01   1.00800           0
      1106 MEMB     9        DOPE     C213     CTL2    -0.180000       12.0110           0
      1107 MEMB     9        DOPE     H13R     HAL2     0.900000E-01   1.00800           0
      1108 MEMB     9        DOPE     H13S     HAL2     0.900000E-01   1.00800           0
      1109 MEMB     9        DOPE     C214     CTL2    -0.180000       12.0110           0
      1110 MEMB     9        DOPE     H14R     HAL2     0.900000E-01   1.00800           0
      1111 MEMB     9        DOPE     H14S     HAL2     0.900000E-01   1.00800           0
      1112 MEMB     9        DOPE     C215     CTL2    -0.180000       12.0110           0
      1113 MEMB     9        DOPE     H15R     HAL2     0.900000E-01   1.00800           0
      1114 MEMB     9        DOPE     H15S     HAL2     0.900000E-01   1.00800           0
      1115 MEMB     9        DOPE     C216     CTL2    -0.180000       12.0110           0
      1116 MEMB     9        DOPE     H16R     HAL2     0.900000E-01   1.00800           0
      1117 MEMB     9        DOPE     H16S     HAL2     0.900000E-01   1.00800           0
      1118 MEMB     9        DOPE     C217     CTL2    -0.180000       12.0110           0
      1119 MEMB     9        DOPE     H17R     HAL2     0.900000E-01   1.00800           0
      1120 MEMB     9        DOPE     H17S     HAL2     0.900000E-01   1.00800           0
      1121 MEMB     9        DOPE     C218     CTL3    -0.270000       12.0110           0
      1122 MEMB     9        DOPE     H18R     HAL3     0.900000E-01   1.00800           0
      1123 MEMB     9        DOPE     H18S     HAL3     0.900000E-01   1.00800           0
      1124 MEMB     9        DOPE     H18T     HAL3     0.900000E-01   1.00800           0
      1125 MEMB     9        DOPE     C33      CTL2    -0.180000       12.0110           0
      1126 MEMB     9        DOPE     H3X      HAL2     0.900000E-01   1.00800           0
      1127 MEMB     9        DOPE     H3Y      HAL2     0.900000E-01   1.00800           0
      1128 MEMB     9        DOPE     C34      CTL2    -0.180000       12.0110           0
      1129 MEMB     9        DOPE     H4X      HAL2     0.900000E-01   1.00800           0
      1130 MEMB     9        DOPE     H4Y      HAL2     0.900000E-01   1.00800           0
      1131 MEMB     9        DOPE     C35      CTL2    -0.180000       12.0110           0
      1132 MEMB     9        DOPE     H5X      HAL2     0.900000E-01   1.00800           0
      1133 MEMB     9        DOPE     H5Y      HAL2     0.900000E-01   1.00800           0
      1134 MEMB     9        DOPE     C36      CTL2    -0.180000       12.0110           0
      1135 MEMB     9        DOPE     H6X      HAL2     0.900000E-01   1.00800           0
      1136 MEMB     9        DOPE     H6Y      HAL2     0.900000E-01   1.00800           0
      1137 MEMB     9        DOPE     C37      CTL2    -0.180000       12.0110           0
      1138 MEMB     9        DOPE     H7X      HAL2     0.900000E-01   1.00800           0
      1139 MEMB     9        DOPE     H7Y      HAL2     0.900000E-01   1.00800           0
      1140 MEMB     9        DOPE     C38      CTL2    -0.180000       12.0110           0
      1141 MEMB     9        DOPE     H8X      HAL2     0.900000E-01   1.00800           0
      1142 MEMB     9        DOPE     H8Y      HAL2     0.900000E-01   1.00800           0
      1143 MEMB     9        DOPE     C39      CEL1    -0.150000       12.0110           0
      1144 MEMB     9        DOPE     H9X      HEL1     0.150000       1.00800           0
      1145 MEMB     9        DOPE     C310     CEL1    -0.150000       12.0110           0
      1146 MEMB     9        DOPE     H10X     HEL1     0.150000       1.00800           0
      1147 MEMB     9        DOPE     C311     CTL2    -0.180000       12.0110           0
      1148 MEMB     9        DOPE     H11X     HAL2     0.900000E-01   1.00800           0
      1149 MEMB     9        DOPE     H11Y     HAL2     0.900000E-01   1.00800           0
      1150 MEMB     9        DOPE     C312     CTL2    -0.180000       12.0110           0
      1151 MEMB     9        DOPE     H12X     HAL2     0.900000E-01   1.00800           0
      1152 MEMB     9        DOPE     H12Y     HAL2     0.900000E-01   1.00800           0
      1153 MEMB     9        DOPE     C313     CTL2    -0.180000       12.0110           0
      1154 MEMB     9        DOPE     H13X     HAL2     0.900000E-01   1.00800           0
      1155 MEMB     9        DOPE     H13Y     HAL2     0.900000E-01   1.00800           0
      1156 MEMB     9        DOPE     C314     CTL2    -0.180000       12.0110           0
      1157 MEMB     9        DOPE     H14X     HAL2     0.900000E-01   1.00800           0
      1158 MEMB     9        DOPE     H14Y     HAL2     0.900000E-01   1.00800           0
      1159 MEMB     9        DOPE     C315     CTL2    -0.180000       12.0110           0
      1160 MEMB     9        DOPE     H15X     HAL2     0.900000E-01   1.00800           0
      1161 MEMB     9        DOPE     H15Y     HAL2     0.900000E-01   1.00800           0
      1162 MEMB     9        DOPE     C316     CTL2    -0.180000       12.0110           0
      1163 MEMB     9        DOPE     H16X     HAL2     0.900000E-01   1.00800           0
      1164 MEMB     9        DOPE     H16Y     HAL2     0.900000E-01   1.00800           0
      1165 MEMB     9        DOPE     C317     CTL2    -0.180000       12.0110           0
      1166 MEMB     9        DOPE     H17X     HAL2     0.900000E-01   1.00800           0
      1167 MEMB     9        DOPE     H17Y     HAL2     0.900000E-01   1.00800           0
      1168 MEMB     9        DOPE     C318     CTL3    -0.270000       12.0110           0
      1169 MEMB     9        DOPE     H18X     HAL3     0.900000E-01   1.00800           0
      1170 MEMB     9        DOPE     H18Y     HAL3     0.900000E-01   1.00800           0
      1171 MEMB     9        DOPE     H18Z     HAL3     0.900000E-01   1.00800           0
      1172 MEMB     10       CHL1     C3       CRL1     0.140000       12.0110           0
      1173 MEMB     10       CHL1     H3       HGA1     0.900000E-01   1.00800           0
      1174 MEMB     10       CHL1     O3       OHL     -0.660000       15.9994           0
      1175 MEMB     10       CHL1     H3'      HOL      0.430000       1.00800           0
      1176 MEMB     10       CHL1     C4       CRL2    -0.180000       12.0110           0
      1177 MEMB     10       CHL1     H4A      HGA2     0.900000E-01   1.00800           0
      1178 MEMB     10       CHL1     H4B      HGA2     0.900000E-01   1.00800           0
      1179 MEMB     10       CHL1     C5       CEL1      0.00000       12.0110           0
      1180 MEMB     10       CHL1     C6       CEL1    -0.150000       12.0110           0
      1181 MEMB     10       CHL1     H6       HEL1     0.150000       1.00800           0
      1182 MEMB     10       CHL1     C7       CRL2    -0.180000       12.0110           0
      1183 MEMB     10       CHL1     H7A      HGA2     0.900000E-01   1.00800           0
      1184 MEMB     10       CHL1     H7B      HGA2     0.900000E-01   1.00800           0
      1185 MEMB     10       CHL1     C8       CRL1    -0.900000E-01   12.0110           0
      1186 MEMB     10       CHL1     H8       HGA1     0.900000E-01   1.00800           0
      1187 MEMB     10       CHL1     C14      CRL1    -0.900000E-01   12.0110           0
      1188 MEMB     10       CHL1     H14      HGA1     0.900000E-01   1.00800           0
      1189 MEMB     10       CHL1     C15      CRL2    -0.180000       12.0110           0
      1190 MEMB     10       CHL1     H15A     HGA2     0.900000E-01   1.00800           0
      1191 MEMB     10       CHL1     H15B     HGA2     0.900000E-01   1.00800           0
      1192 MEMB     10       CHL1     C16      CRL2    -0.180000       12.0110           0
      1193 MEMB     10       CHL1     H16A     HGA2     0.900000E-01   1.00800           0
      1194 MEMB     10       CHL1     H16B     HGA2     0.900000E-01   1.00800           0
      1195 MEMB     10       CHL1     C17      CRL1    -0.900000E-01   12.0110           0
      1196 MEMB     10       CHL1     H17      HGA1     0.900000E-01   1.00800           0
      1197 MEMB     10       CHL1     C13      CRL1      0.00000       12.0110           0
      1198 MEMB     10       CHL1     C18      CTL3    -0.270000       12.0110           0
      1199 MEMB     10       CHL1     H18A     HAL3     0.900000E-01   1.00800           0
      1200 MEMB     10       CHL1     H18B     HAL3     0.900000E-01   1.00800           0
      1201 MEMB     10       CHL1     H18C     HAL3     0.900000E-01   1.00800           0
      1202 MEMB     10       CHL1     C12      CRL2    -0.180000       12.0110           0
      1203 MEMB     10       CHL1     H12A     HGA2     0.900000E-01   1.00800           0
      1204 MEMB     10       CHL1     H12B     HGA2     0.900000E-01   1.00800           0
      1205 MEMB     10       CHL1     C11      CRL2    -0.180000       12.0110           0
      1206 MEMB     10       CHL1     H11A     HGA2     0.900000E-01   1.00800           0
      1207 MEMB     10       CHL1     H11B     HGA2     0.900000E-01   1.00800           0
      1208 MEMB     10       CHL1     C9       CRL1    -0.900000E-01   12.0110           0
      1209 MEMB     10       CHL1     H9       HGA1     0.900000E-01   1.00800           0
      1210 MEMB     10       CHL1     C10      CRL1      0.00000       12.0110           0
      1211 MEMB     10       CHL1     C19      CTL3    -0.270000       12.0110           0
      1212 MEMB     10       CHL1     H19A     HAL3     0.900000E-01   1.00800           0
      1213 MEMB     10       CHL1     H19B     HAL3     0.900000E-01   1.00800           0
      1214 MEMB     10       CHL1     H19C     HAL3     0.900000E-01   1.00800           0
      1215 MEMB     10       CHL1     C1       CRL2    -0.180000       12.0110           0
      1216 MEMB     10       CHL1     H1A      HGA2     0.900000E-01   1.00800           0
      1217 MEMB     10       CHL1     H1B      HGA2     0.900000E-01   1.00800           0
      1218 MEMB     10       CHL1     C2       CRL2    -0.180000       12.0110           0
      1219 MEMB     10       CHL1     H2A      HGA2     0.900000E-01   1.00800           0
      1220 MEMB     10       CHL1     H2B      HGA2     0.900000E-01   1.00800           0
      1221 MEMB     10       CHL1     C20      CTL1    -0.900000E-01   12.0110           0
      1222 MEMB     10       CHL1     H20      HAL1     0.900000E-01   1.00800           0
      1223 MEMB     10       CHL1     C21      CTL3    -0.270000       12.0110           0
      1224 MEMB     10       CHL1     H21A     HAL3     0.900000E-01   1.00800           0
      1225 MEMB     10       CHL1     H21B     HAL3     0.900000E-01   1.00800           0
      1226 MEMB     10       CHL1     H21C     HAL3     0.900000E-01   1.00800           0
      1227 MEMB     10       CHL1     C22      CTL2    -0.180000       12.0110           0
      1228 MEMB     10       CHL1     H22A     HAL2     0.900000E-01   1.00800           0
      1229 MEMB     10       CHL1     H22B     HAL2     0.900000E-01   1.00800           0
      1230 MEMB     10       CHL1     C23      CTL2    -0.180000       12.0110           0
      1231 MEMB     10       CHL1     H23A     HAL2     0.900000E-01   1.00800           0
      1232 MEMB     10       CHL1     H23B     HAL2     0.900000E-01   1.00800           0
      1233 MEMB     10       CHL1     C24      CTL2    -0.180000       12.0110           0
      1234 MEMB     10       CHL1     H24A     HAL2     0.900000E-01   1.00800           0
      1235 MEMB     10       CHL1     H24B     HAL2     0.900000E-01   1.00800           0
      1236 MEMB     10       CHL1     C25      CTL1    -0.900000E-01   12.0110           0
      1237 MEMB     10       CHL1     H25      HAL1     0.900000E-01   1.00800           0
      1238 MEMB     10       CHL1     C26      CTL3    -0.270000       12.0110           0
      1239 MEMB     10       CHL1     H26A     HAL3     0.900000E-01   1.00800           0
      1240 MEMB     10       CHL1     H26B     HAL3     0.900000E-01   1.00800           0
      1241 MEMB     10       CHL1     H26C     HAL3     0.900000E-01   1.00800           0
      1242 MEMB     10       CHL1     C27      CTL3    -0.270000       12.0110           0
      1243 MEMB     10       CHL1     H27A     HAL3     0.900000E-01   1.00800           0
      1244 MEMB     10       CHL1     H27B     HAL3     0.900000E-01   1.00800           0
      1245 MEMB     10       CHL1     H27C     HAL3     0.900000E-01   1.00800           0
      1246 MEMB     11       23SM     N        NTL     -0.600000       14.0070           0
      1247 MEMB     11       23SM     C15      CTL5    -0.350000       12.0110           0
      1248 MEMB     11       23SM     H15A     HL       0.250000       1.00800           0
      1249 MEMB     11       23SM     H15B     HL       0.250000       1.00800           0
      1250 MEMB     11       23SM     H15C     HL       0.250000       1.00800           0
      1251 MEMB     11       23SM     C14      CTL5    -0.350000       12.0110           0
      1252 MEMB     11       23SM     H14A     HL       0.250000       1.00800           0
      1253 MEMB     11       23SM     H14B     HL       0.250000       1.00800           0
      1254 MEMB     11       23SM     H14C     HL       0.250000       1.00800           0
      1255 MEMB     11       23SM     C13      CTL5    -0.350000       12.0110           0
      1256 MEMB     11       23SM     H13A     HL       0.250000       1.00800           0
      1257 MEMB     11       23SM     H13B     HL       0.250000       1.00800           0
      1258 MEMB     11       23SM     H13C     HL       0.250000       1.00800           0
      1259 MEMB     11       23SM     C12      CTL2    -0.100000       12.0110           0
      1260 MEMB     11       23SM     H12A     HL       0.250000       1.00800           0
      1261 MEMB     11       23SM     H12B     HL       0.250000       1.00800           0
      1262 MEMB     11       23SM     C11      CTL2    -0.800000E-01   12.0110           0
      1263 MEMB     11       23SM     H11A     HAL2     0.900000E-01   1.00800           0
      1264 MEMB     11       23SM     H11B     HAL2     0.900000E-01   1.00800           0
      1265 MEMB     11       23SM     P        PL        1.50000       30.9740           0
      1266 MEMB     11       23SM     O13      O2L     -0.780000       15.9994           0
      1267 MEMB     11       23SM     O14      O2L     -0.780000       15.9994           0
      1268 MEMB     11       23SM     O11      OSLP    -0.570000       15.9994           0
      1269 MEMB     11       23SM     O12      OSLP    -0.570000       15.9994           0
      1270 MEMB     11       23SM     C1S      CTL2    -0.800000E-01   12.0110           0
      1271 MEMB     11       23SM     H1S      HAL2     0.900000E-01   1.00800           0
      1272 MEMB     11       23SM     H1T      HAL2     0.900000E-01   1.00800           0
      1273 MEMB     11       23SM     NF       NHL     -0.700000       14.0070           0
      1274 MEMB     11       23SM     HNF      H        0.350000       1.00800           0
      1275 MEMB     11       23SM     C2S      CTL1     0.300000       12.0110           0
      1276 MEMB     11       23SM     H2S      HAL1     0.500000E-01   1.00800           0
      1277 MEMB     11       23SM     C3S      CTO1     0.500000       12.0110           0
      1278 MEMB     11       23SM     H3S      HAL1    -0.110000       1.00800           0
      1279 MEMB     11       23SM     O3       OHL     -0.690000       15.9994           0
      1280 MEMB     11       23SM     HO3      HOL      0.300000       1.00800           0
      1281 MEMB     11       23SM     C4S      CEL3    -0.150000       12.0110           0
      1282 MEMB     11       23SM     H4S      HEL1     0.150000       1.00800           0
      1283 MEMB     11       23SM     C5S      CEL3    -0.150000       12.0110           0
      1284 MEMB     11       23SM     H5S      HEL1     0.150000       1.00800           0
      1285 MEMB     11       23SM     C6S      CTL2    -0.180000       12.0110           0
      1286 MEMB     11       23SM     H6S      HAL2     0.900000E-01   1.00800           0
      1287 MEMB     11       23SM     H6T      HAL2     0.900000E-01   1.00800           0
      1288 MEMB     11       23SM     C7S      CTL2    -0.180000       12.0110           0
      1289 MEMB     11       23SM     H7S      HAL2     0.900000E-01   1.00800           0
      1290 MEMB     11       23SM     H7T      HAL2     0.900000E-01   1.00800           0
      1291 MEMB     11       23SM     C8S      CTL2    -0.180000       12.0110           0
      1292 MEMB     11       23SM     H8S      HAL2     0.900000E-01   1.00800           0
      1293 MEMB     11       23SM     H8T      HAL2     0.900000E-01   1.00800           0
      1294 MEMB     11       23SM     C9S      CTL2    -0.180000       12.0110           0
      1295 MEMB     11       23SM     H9S      HAL2     0.900000E-01   1.00800           0
      1296 MEMB     11       23SM     H9T      HAL2     0.900000E-01   1.00800           0
      1297 MEMB     11       23SM     C10S     CTL2    -0.180000       12.0110           0
      1298 MEMB     11       23SM     H10S     HAL2     0.900000E-01   1.00800           0
      1299 MEMB     11       23SM     H10T     HAL2     0.900000E-01   1.00800           0
      1300 MEMB     11       23SM     C11S     CTL2    -0.180000       12.0110           0
      1301 MEMB     11       23SM     H11S     HAL2     0.900000E-01   1.00800           0
      1302 MEMB     11       23SM     H11T     HAL2     0.900000E-01   1.00800           0
      1303 MEMB     11       23SM     C12S     CTL2    -0.180000       12.0110           0
      1304 MEMB     11       23SM     H12S     HAL2     0.900000E-01   1.00800           0
      1305 MEMB     11       23SM     H12T     HAL2     0.900000E-01   1.00800           0
      1306 MEMB     11       23SM     C13S     CTL2    -0.180000       12.0110           0
      1307 MEMB     11       23SM     H13S     HAL2     0.900000E-01   1.00800           0
      1308 MEMB     11       23SM     H13T     HAL2     0.900000E-01   1.00800           0
      1309 MEMB     11       23SM     C14S     CTL2    -0.180000       12.0110           0
      1310 MEMB     11       23SM     H14S     HAL2     0.900000E-01   1.00800           0
      1311 MEMB     11       23SM     H14T     HAL2     0.900000E-01   1.00800           0
      1312 MEMB     11       23SM     C15S     CTL2    -0.180000       12.0110           0
      1313 MEMB     11       23SM     H15S     HAL2     0.900000E-01   1.00800           0
      1314 MEMB     11       23SM     H15T     HAL2     0.900000E-01   1.00800           0
      1315 MEMB     11       23SM     C16S     CTL2    -0.180000       12.0110           0
      1316 MEMB     11       23SM     H16S     HAL2     0.900000E-01   1.00800           0
      1317 MEMB     11       23SM     H16T     HAL2     0.900000E-01   1.00800           0
      1318 MEMB     11       23SM     C17S     CTL2    -0.180000       12.0110           0
      1319 MEMB     11       23SM     H17S     HAL2     0.900000E-01   1.00800           0
      1320 MEMB     11       23SM     H17T     HAL2     0.900000E-01   1.00800           0
      1321 MEMB     11       23SM     C18S     CTL3    -0.270000       12.0110           0
      1322 MEMB     11       23SM     H18S     HAL3     0.900000E-01   1.00800           0
      1323 MEMB     11       23SM     H18T     HAL3     0.900000E-01   1.00800           0
      1324 MEMB     11       23SM     H18U     HAL3     0.900000E-01   1.00800           0
      1325 MEMB     11       23SM     C1F      C        0.550000       12.0110           0
      1326 MEMB     11       23SM     OF       O       -0.600000       15.9994           0
      1327 MEMB     11       23SM     C2F      CTL2    -0.700000E-01   12.0110           0
      1328 MEMB     11       23SM     H2F      HAL2     0.600000E-01   1.00800           0
      1329 MEMB     11       23SM     H2G      HAL2     0.600000E-01   1.00800           0
      1330 MEMB     11       23SM     C3F      CTL2    -0.180000       12.0110           0
      1331 MEMB     11       23SM     H3F      HAL2     0.900000E-01   1.00800           0
      1332 MEMB     11       23SM     H3G      HAL2     0.900000E-01   1.00800           0
      1333 MEMB     11       23SM     C4F      CTL2    -0.180000       12.0110           0
      1334 MEMB     11       23SM     H4F      HAL2     0.900000E-01   1.00800           0
      1335 MEMB     11       23SM     H4G      HAL2     0.900000E-01   1.00800           0
      1336 MEMB     11       23SM     C5F      CTL2    -0.180000       12.0110           0
      1337 MEMB     11       23SM     H5F      HAL2     0.900000E-01   1.00800           0
      1338 MEMB     11       23SM     H5G      HAL2     0.900000E-01   1.00800           0
      1339 MEMB     11       23SM     C6F      CTL2    -0.180000       12.0110           0
      1340 MEMB     11       23SM     H6F      HAL2     0.900000E-01   1.00800           0
      1341 MEMB     11       23SM     H6G      HAL2     0.900000E-01   1.00800           0
      1342 MEMB     11       23SM     C7F      CTL2    -0.180000       12.0110           0
      1343 MEMB     11       23SM     H7F      HAL2     0.900000E-01   1.00800           0
      1344 MEMB     11       23SM     H7G      HAL2     0.900000E-01   1.00800           0
      1345 MEMB     11       23SM     C8F      CTL2    -0.180000       12.0110           0
      1346 MEMB     11       23SM     H8F      HAL2     0.900000E-01   1.00800           0
      1347 MEMB     11       23SM     H8G      HAL2     0.900000E-01   1.00800           0
      1348 MEMB     11       23SM     C9F      CTL2    -0.180000       12.0110           0
      1349 MEMB     11       23SM     H9F      HAL2     0.900000E-01   1.00800           0
      1350 MEMB     11       23SM     H9G      HAL2     0.900000E-01   1.00800           0
      1351 MEMB     11       23SM     C10F     CTL2    -0.180000       12.0110           0
      1352 MEMB     11       23SM     H10F     HAL2     0.900000E-01   1.00800           0
      1353 MEMB     11       23SM     H10G     HAL2     0.900000E-01   1.00800           0
      1354 MEMB     11       23SM     C11F     CTL2    -0.180000       12.0110           0
      1355 MEMB     11       23SM     H11F     HAL2     0.900000E-01   1.00800           0
      1356 MEMB     11       23SM     H11G     HAL2     0.900000E-01   1.00800           0
      1357 MEMB     11       23SM     C12F     CTL2    -0.180000       12.0110           0
      1358 MEMB     11       23SM     H12F     HAL2     0.900000E-01   1.00800           0
      1359 MEMB     11       23SM     H12G     HAL2     0.900000E-01   1.00800           0
      1360 MEMB     11       23SM     C13F     CTL2    -0.180000       12.0110           0
      1361 MEMB     11       23SM     H13F     HAL2     0.900000E-01   1.00800           0
      1362 MEMB     11       23SM     H13G     HAL2     0.900000E-01   1.00800           0
      1363 MEMB     11       23SM     C14F     CTL2    -0.180000       12.0110           0
      1364 MEMB     11       23SM     H14F     HAL2     0.900000E-01   1.00800           0
      1365 MEMB     11       23SM     H14G     HAL2     0.900000E-01   1.00800           0
      1366 MEMB     11       23SM     C15F     CTL2    -0.180000       12.0110           0
      1367 MEMB     11       23SM     H15F     HAL2     0.900000E-01   1.00800           0
      1368 MEMB     11       23SM     H15G     HAL2     0.900000E-01   1.00800           0
      1369 MEMB     11       23SM     C16F     CTL2    -0.180000       12.0110           0
      1370 MEMB     11       23SM     H16F     HAL2     0.900000E-01   1.00800           0
      1371 MEMB     11       23SM     H16G     HAL2     0.900000E-01   1.00800           0
      1372 MEMB     11       23SM     C17F     CTL2    -0.180000       12.0110           0
      1373 MEMB     11       23SM     H17F     HAL2     0.900000E-01   1.00800           0
      1374 MEMB     11       23SM     H17G     HAL2     0.900000E-01   1.00800           0
      1375 MEMB     11       23SM     C18F     CTL2    -0.180000       12.0110           0
      1376 MEMB     11       23SM     H18F     HAL2     0.900000E-01   1.00800           0
      1377 MEMB     11       23SM     H18G     HAL2     0.900000E-01   1.00800           0
      1378 MEMB     11       23SM     C19F     CTL2    -0.180000       12.0110           0
      1379 MEMB     11       23SM     H19F     HAL2     0.900000E-01   1.00800           0
      1380 MEMB     11       23SM     H19G     HAL2     0.900000E-01   1.00800           0
      1381 MEMB     11       23SM     C20F     CTL2    -0.180000       12.0110           0
      1382 MEMB     11       23SM     H20F     HAL2     0.900000E-01   1.00800           0
      1383 MEMB     11       23SM     H20G     HAL2     0.900000E-01   1.00800           0
      1384 MEMB     11       23SM     C21F     CTL2    -0.180000       12.0110           0
      1385 MEMB     11       23SM     H21F     HAL2     0.900000E-01   1.00800           0
      1386 MEMB     11       23SM     H21G     HAL2     0.900000E-01   1.00800           0
      1387 MEMB     11       23SM     C22F     CTL2    -0.180000       12.0110           0
      1388 MEMB     11       23SM     H22F     HAL2     0.900000E-01   1.00800           0
      1389 MEMB     11       23SM     H22G     HAL2     0.900000E-01   1.00800           0
      1390 MEMB     11       23SM     C23F     CTL3    -0.270000       12.0110           0
      1391 MEMB     11       23SM     H23F     HAL3     0.900000E-01   1.00800           0
      1392 MEMB     11       23SM     H23G     HAL3     0.900000E-01   1.00800           0
      1393 MEMB     11       23SM     H23H     HAL3     0.900000E-01   1.00800           0
      1394 MEMB     12       DOPC     N        NTL     -0.600000       14.0070           0
      1395 MEMB     12       DOPC     C12      CTL2    -0.100000       12.0110           0
      1396 MEMB     12       DOPC     H12A     HL       0.250000       1.00800           0
      1397 MEMB     12       DOPC     H12B     HL       0.250000       1.00800           0
      1398 MEMB     12       DOPC     C13      CTL5    -0.350000       12.0110           0
      1399 MEMB     12       DOPC     H13A     HL       0.250000       1.00800           0
      1400 MEMB     12       DOPC     H13B     HL       0.250000       1.00800           0
      1401 MEMB     12       DOPC     H13C     HL       0.250000       1.00800           0
      1402 MEMB     12       DOPC     C14      CTL5    -0.350000       12.0110           0
      1403 MEMB     12       DOPC     H14A     HL       0.250000       1.00800           0
      1404 MEMB     12       DOPC     H14B     HL       0.250000       1.00800           0
      1405 MEMB     12       DOPC     H14C     HL       0.250000       1.00800           0
      1406 MEMB     12       DOPC     C15      CTL5    -0.350000       12.0110           0
      1407 MEMB     12       DOPC     H15A     HL       0.250000       1.00800           0
      1408 MEMB     12       DOPC     H15B     HL       0.250000       1.00800           0
      1409 MEMB     12       DOPC     H15C     HL       0.250000       1.00800           0
      1410 MEMB     12       DOPC     C11      CTL2    -0.800000E-01   12.0110           0
      1411 MEMB     12       DOPC     H11A     HAL2     0.900000E-01   1.00800           0
      1412 MEMB     12       DOPC     H11B     HAL2     0.900000E-01   1.00800           0
      1413 MEMB     12       DOPC     P        PL        1.50000       30.9740           0
      1414 MEMB     12       DOPC     O13      O2L     -0.780000       15.9994           0
      1415 MEMB     12       DOPC     O14      O2L     -0.780000       15.9994           0
      1416 MEMB     12       DOPC     O12      OSLP    -0.570000       15.9994           0
      1417 MEMB     12       DOPC     O11      OSLP    -0.570000       15.9994           0
      1418 MEMB     12       DOPC     C1       CTL2    -0.800000E-01   12.0110           0
      1419 MEMB     12       DOPC     HA       HAL2     0.900000E-01   1.00800           0
      1420 MEMB     12       DOPC     HB       HAL2     0.900000E-01   1.00800           0
      1421 MEMB     12       DOPC     C2       CTL1     0.170000       12.0110           0
      1422 MEMB     12       DOPC     HS       HAL1     0.900000E-01   1.00800           0
      1423 MEMB     12       DOPC     O21      OSL     -0.490000       15.9994           0
      1424 MEMB     12       DOPC     C21      CL       0.900000       12.0110           0
      1425 MEMB     12       DOPC     O22      OBL     -0.630000       15.9994           0
      1426 MEMB     12       DOPC     C22      CTL2    -0.220000       12.0110           0
      1427 MEMB     12       DOPC     H2R      HAL2     0.900000E-01   1.00800           0
      1428 MEMB     12       DOPC     H2S      HAL2     0.900000E-01   1.00800           0
      1429 MEMB     12       DOPC     C3       CTL2     0.800000E-01   12.0110           0
      1430 MEMB     12       DOPC     HX       HAL2     0.900000E-01   1.00800           0
      1431 MEMB     12       DOPC     HY       HAL2     0.900000E-01   1.00800           0
      1432 MEMB     12       DOPC     O31      OSL     -0.490000       15.9994           0
      1433 MEMB     12       DOPC     C31      CL       0.900000       12.0110           0
      1434 MEMB     12       DOPC     O32      OBL     -0.630000       15.9994           0
      1435 MEMB     12       DOPC     C32      CTL2    -0.220000       12.0110           0
      1436 MEMB     12       DOPC     H2X      HAL2     0.900000E-01   1.00800           0
      1437 MEMB     12       DOPC     H2Y      HAL2     0.900000E-01   1.00800           0
      1438 MEMB     12       DOPC     C23      CTL2    -0.180000       12.0110           0
      1439 MEMB     12       DOPC     H3R      HAL2     0.900000E-01   1.00800           0
      1440 MEMB     12       DOPC     H3S      HAL2     0.900000E-01   1.00800           0
      1441 MEMB     12       DOPC     C24      CTL2    -0.180000       12.0110           0
      1442 MEMB     12       DOPC     H4R      HAL2     0.900000E-01   1.00800           0
      1443 MEMB     12       DOPC     H4S      HAL2     0.900000E-01   1.00800           0
      1444 MEMB     12       DOPC     C25      CTL2    -0.180000       12.0110           0
      1445 MEMB     12       DOPC     H5R      HAL2     0.900000E-01   1.00800           0
      1446 MEMB     12       DOPC     H5S      HAL2     0.900000E-01   1.00800           0
      1447 MEMB     12       DOPC     C26      CTL2    -0.180000       12.0110           0
      1448 MEMB     12       DOPC     H6R      HAL2     0.900000E-01   1.00800           0
      1449 MEMB     12       DOPC     H6S      HAL2     0.900000E-01   1.00800           0
      1450 MEMB     12       DOPC     C27      CTL2    -0.180000       12.0110           0
      1451 MEMB     12       DOPC     H7R      HAL2     0.900000E-01   1.00800           0
      1452 MEMB     12       DOPC     H7S      HAL2     0.900000E-01   1.00800           0
      1453 MEMB     12       DOPC     C28      CTL2    -0.180000       12.0110           0
      1454 MEMB     12       DOPC     H8R      HAL2     0.900000E-01   1.00800           0
      1455 MEMB     12       DOPC     H8S      HAL2     0.900000E-01   1.00800           0
      1456 MEMB     12       DOPC     C29      CEL1    -0.150000       12.0110           0
      1457 MEMB     12       DOPC     H9R      HEL1     0.150000       1.00800           0
      1458 MEMB     12       DOPC     C210     CEL1    -0.150000       12.0110           0
      1459 MEMB     12       DOPC     H10R     HEL1     0.150000       1.00800           0
      1460 MEMB     12       DOPC     C211     CTL2    -0.180000       12.0110           0
      1461 MEMB     12       DOPC     H11R     HAL2     0.900000E-01   1.00800           0
      1462 MEMB     12       DOPC     H11S     HAL2     0.900000E-01   1.00800           0
      1463 MEMB     12       DOPC     C212     CTL2    -0.180000       12.0110           0
      1464 MEMB     12       DOPC     H12R     HAL2     0.900000E-01   1.00800           0
      1465 MEMB     12       DOPC     H12S     HAL2     0.900000E-01   1.00800           0
      1466 MEMB     12       DOPC     C213     CTL2    -0.180000       12.0110           0
      1467 MEMB     12       DOPC     H13R     HAL2     0.900000E-01   1.00800           0
      1468 MEMB     12       DOPC     H13S     HAL2     0.900000E-01   1.00800           0
      1469 MEMB     12       DOPC     C214     CTL2    -0.180000       12.0110           0
      1470 MEMB     12       DOPC     H14R     HAL2     0.900000E-01   1.00800           0
      1471 MEMB     12       DOPC     H14S     HAL2     0.900000E-01   1.00800           0
      1472 MEMB     12       DOPC     C215     CTL2    -0.180000       12.0110           0
      1473 MEMB     12       DOPC     H15R     HAL2     0.900000E-01   1.00800           0
      1474 MEMB     12       DOPC     H15S     HAL2     0.900000E-01   1.00800           0
      1475 MEMB     12       DOPC     C216     CTL2    -0.180000       12.0110           0
      1476 MEMB     12       DOPC     H16R     HAL2     0.900000E-01   1.00800           0
      1477 MEMB     12       DOPC     H16S     HAL2     0.900000E-01   1.00800           0
      1478 MEMB     12       DOPC     C217     CTL2    -0.180000       12.0110           0
      1479 MEMB     12       DOPC     H17R     HAL2     0.900000E-01   1.00800           0
      1480 MEMB     12       DOPC     H17S     HAL2     0.900000E-01   1.00800           0
      1481 MEMB     12       DOPC     C218     CTL3    -0.270000       12.0110           0
      1482 MEMB     12       DOPC     H18R     HAL3     0.900000E-01   1.00800           0
      1483 MEMB     12       DOPC     H18S     HAL3     0.900000E-01   1.00800           0
      1484 MEMB     12       DOPC     H18T     HAL3     0.900000E-01   1.00800           0
      1485 MEMB     12       DOPC     C33      CTL2    -0.180000       12.0110           0
      1486 MEMB     12       DOPC     H3X      HAL2     0.900000E-01   1.00800           0
      1487 MEMB     12       DOPC     H3Y      HAL2     0.900000E-01   1.00800           0
      1488 MEMB     12       DOPC     C34      CTL2    -0.180000       12.0110           0
      1489 MEMB     12       DOPC     H4X      HAL2     0.900000E-01   1.00800           0
      1490 MEMB     12       DOPC     H4Y      HAL2     0.900000E-01   1.00800           0
      1491 MEMB     12       DOPC     C35      CTL2    -0.180000       12.0110           0
      1492 MEMB     12       DOPC     H5X      HAL2     0.900000E-01   1.00800           0
      1493 MEMB     12       DOPC     H5Y      HAL2     0.900000E-01   1.00800           0
      1494 MEMB     12       DOPC     C36      CTL2    -0.180000       12.0110           0
      1495 MEMB     12       DOPC     H6X      HAL2     0.900000E-01   1.00800           0
      1496 MEMB     12       DOPC     H6Y      HAL2     0.900000E-01   1.00800           0
      1497 MEMB     12       DOPC     C37      CTL2    -0.180000       12.0110           0
      1498 MEMB     12       DOPC     H7X      HAL2     0.900000E-01   1.00800           0
      1499 MEMB     12       DOPC     H7Y      HAL2     0.900000E-01   1.00800           0
      1500 MEMB     12       DOPC     C38      CTL2    -0.180000       12.0110           0
      1501 MEMB     12       DOPC     H8X      HAL2     0.900000E-01   1.00800           0
      1502 MEMB     12       DOPC     H8Y      HAL2     0.900000E-01   1.00800           0
      1503 MEMB     12       DOPC     C39      CEL1    -0.150000       12.0110           0
      1504 MEMB     12       DOPC     H9X      HEL1     0.150000       1.00800           0
      1505 MEMB     12       DOPC     C310     CEL1    -0.150000       12.0110           0
      1506 MEMB     12       DOPC     H10X     HEL1     0.150000       1.00800           0
      1507 MEMB     12       DOPC     C311     CTL2    -0.180000       12.0110           0
      1508 MEMB     12       DOPC     H11X     HAL2     0.900000E-01   1.00800           0
      1509 MEMB     12       DOPC     H11Y     HAL2     0.900000E-01   1.00800           0
      1510 MEMB     12       DOPC     C312     CTL2    -0.180000       12.0110           0
      1511 MEMB     12       DOPC     H12X     HAL2     0.900000E-01   1.00800           0
      1512 MEMB     12       DOPC     H12Y     HAL2     0.900000E-01   1.00800           0
      1513 MEMB     12       DOPC     C313     CTL2    -0.180000       12.0110           0
      1514 MEMB     12       DOPC     H13X     HAL2     0.900000E-01   1.00800           0
      1515 MEMB     12       DOPC     H13Y     HAL2     0.900000E-01   1.00800           0
      1516 MEMB     12       DOPC     C314     CTL2    -0.180000       12.0110           0
      1517 MEMB     12       DOPC     H14X     HAL2     0.900000E-01   1.00800           0
      1518 MEMB     12       DOPC     H14Y     HAL2     0.900000E-01   1.00800           0
      1519 MEMB     12       DOPC     C315     CTL2    -0.180000       12.0110           0
      1520 MEMB     12       DOPC     H15X     HAL2     0.900000E-01   1.00800           0
      1521 MEMB     12       DOPC     H15Y     HAL2     0.900000E-01   1.00800           0
      1522 MEMB     12       DOPC     C316     CTL2    -0.180000       12.0110           0
      1523 MEMB     12       DOPC     H16X     HAL2     0.900000E-01   1.00800           0
      1524 MEMB     12       DOPC     H16Y     HAL2     0.900000E-01   1.00800           0
      1525 MEMB     12       DOPC     C317     CTL2    -0.180000       12.0110           0
      1526 MEMB     12       DOPC     H17X     HAL2     0.900000E-01   1.00800           0
      1527 MEMB     12       DOPC     H17Y     HAL2     0.900000E-01   1.00800           0
      1528 MEMB     12       DOPC     C318     CTL3    -0.270000       12.0110           0
      1529 MEMB     12       DOPC     H18X     HAL3     0.900000E-01   1.00800           0
      1530 MEMB     12       DOPC     H18Y     HAL3     0.900000E-01   1.00800           0
      1531 MEMB     12       DOPC     H18Z     HAL3     0.900000E-01   1.00800           0
      1532 MEMB     13       23SM     N        NTL     -0.600000       14.0070           0
      1533 MEMB     13       23SM     C15      CTL5    -0.350000       12.0110           0
      1534 MEMB     13       23SM     H15A     HL       0.250000       1.00800           0
      1535 MEMB     13       23SM     H15B     HL       0.250000       1.00800           0
      1536 MEMB     13       23SM     H15C     HL       0.250000       1.00800           0
      1537 MEMB     13       23SM     C14      CTL5    -0.350000       12.0110           0
      1538 MEMB     13       23SM     H14A     HL       0.250000       1.00800           0
      1539 MEMB     13       23SM     H14B     HL       0.250000       1.00800           0
      1540 MEMB     13       23SM     H14C     HL       0.250000       1.00800           0
      1541 MEMB     13       23SM     C13      CTL5    -0.350000       12.0110           0
      1542 MEMB     13       23SM     H13A     HL       0.250000       1.00800           0
      1543 MEMB     13       23SM     H13B     HL       0.250000       1.00800           0
      1544 MEMB     13       23SM     H13C     HL       0.250000       1.00800           0
      1545 MEMB     13       23SM     C12      CTL2    -0.100000       12.0110           0
      1546 MEMB     13       23SM     H12A     HL       0.250000       1.00800           0
      1547 MEMB     13       23SM     H12B     HL       0.250000       1.00800           0
      1548 MEMB     13       23SM     C11      CTL2    -0.800000E-01   12.0110           0
      1549 MEMB     13       23SM     H11A     HAL2     0.900000E-01   1.00800           0
      1550 MEMB     13       23SM     H11B     HAL2     0.900000E-01   1.00800           0
      1551 MEMB     13       23SM     P        PL        1.50000       30.9740           0
      1552 MEMB     13       23SM     O13      O2L     -0.780000       15.9994           0
      1553 MEMB     13       23SM     O14      O2L     -0.780000       15.9994           0
      1554 MEMB     13       23SM     O11      OSLP    -0.570000       15.9994           0
      1555 MEMB     13       23SM     O12      OSLP    -0.570000       15.9994           0
      1556 MEMB     13       23SM     C1S      CTL2    -0.800000E-01   12.0110           0
      1557 MEMB     13       23SM     H1S      HAL2     0.900000E-01   1.00800           0
      1558 MEMB     13       23SM     H1T      HAL2     0.900000E-01   1.00800           0
      1559 MEMB     13       23SM     NF       NHL     -0.700000       14.0070           0
      1560 MEMB     13       23SM     HNF      H        0.350000       1.00800           0
      1561 MEMB     13       23SM     C2S      CTL1     0.300000       12.0110           0
      1562 MEMB     13       23SM     H2S      HAL1     0.500000E-01   1.00800           0
      1563 MEMB     13       23SM     C3S      CTO1     0.500000       12.0110           0
      1564 MEMB     13       23SM     H3S      HAL1    -0.110000       1.00800           0
      1565 MEMB     13       23SM     O3       OHL     -0.690000       15.9994           0
      1566 MEMB     13       23SM     HO3      HOL      0.300000       1.00800           0
      1567 MEMB     13       23SM     C4S      CEL3    -0.150000       12.0110           0
      1568 MEMB     13       23SM     H4S      HEL1     0.150000       1.00800           0
      1569 MEMB     13       23SM     C5S      CEL3    -0.150000       12.0110           0
      1570 MEMB     13       23SM     H5S      HEL1     0.150000       1.00800           0
      1571 MEMB     13       23SM     C6S      CTL2    -0.180000       12.0110           0
      1572 MEMB     13       23SM     H6S      HAL2     0.900000E-01   1.00800           0
      1573 MEMB     13       23SM     H6T      HAL2     0.900000E-01   1.00800           0
      1574 MEMB     13       23SM     C7S      CTL2    -0.180000       12.0110           0
      1575 MEMB     13       23SM     H7S      HAL2     0.900000E-01   1.00800           0
      1576 MEMB     13       23SM     H7T      HAL2     0.900000E-01   1.00800           0
      1577 MEMB     13       23SM     C8S      CTL2    -0.180000       12.0110           0
      1578 MEMB     13       23SM     H8S      HAL2     0.900000E-01   1.00800           0
      1579 MEMB     13       23SM     H8T      HAL2     0.900000E-01   1.00800           0
      1580 MEMB     13       23SM     C9S      CTL2    -0.180000       12.0110           0
      1581 MEMB     13       23SM     H9S      HAL2     0.900000E-01   1.00800           0
      1582 MEMB     13       23SM     H9T      HAL2     0.900000E-01   1.00800           0
      1583 MEMB     13       23SM     C10S     CTL2    -0.180000       12.0110           0
      1584 MEMB     13       23SM     H10S     HAL2     0.900000E-01   1.00800           0
      1585 MEMB     13       23SM     H10T     HAL2     0.900000E-01   1.00800           0
      1586 MEMB     13       23SM     C11S     CTL2    -0.180000       12.0110           0
      1587 MEMB     13       23SM     H11S     HAL2     0.900000E-01   1.00800           0
      1588 MEMB     13       23SM     H11T     HAL2     0.900000E-01   1.00800           0
      1589 MEMB     13       23SM     C12S     CTL2    -0.180000       12.0110           0
      1590 MEMB     13       23SM     H12S     HAL2     0.900000E-01   1.00800           0
      1591 MEMB     13       23SM     H12T     HAL2     0.900000E-01   1.00800           0
      1592 MEMB     13       23SM     C13S     CTL2    -0.180000       12.0110           0
      1593 MEMB     13       23SM     H13S     HAL2     0.900000E-01   1.00800           0
      1594 MEMB     13       23SM     H13T     HAL2     0.900000E-01   1.00800           0
      1595 MEMB     13       23SM     C14S     CTL2    -0.180000       12.0110           0
      1596 MEMB     13       23SM     H14S     HAL2     0.900000E-01   1.00800           0
      1597 MEMB     13       23SM     H14T     HAL2     0.900000E-01   1.00800           0
      1598 MEMB     13       23SM     C15S     CTL2    -0.180000       12.0110           0
      1599 MEMB     13       23SM     H15S     HAL2     0.900000E-01   1.00800           0
      1600 MEMB     13       23SM     H15T     HAL2     0.900000E-01   1.00800           0
      1601 MEMB     13       23SM     C16S     CTL2    -0.180000       12.0110           0
      1602 MEMB     13       23SM     H16S     HAL2     0.900000E-01   1.00800           0
      1603 MEMB     13       23SM     H16T     HAL2     0.900000E-01   1.00800           0
      1604 MEMB     13       23SM     C17S     CTL2    -0.180000       12.0110           0
      1605 MEMB     13       23SM     H17S     HAL2     0.900000E-01   1.00800           0
      1606 MEMB     13       23SM     H17T     HAL2     0.900000E-01   1.00800           0
      1607 MEMB     13       23SM     C18S     CTL3    -0.270000       12.0110           0
      1608 MEMB     13       23SM     H18S     HAL3     0.900000E-01   1.00800           0
      1609 MEMB     13       23SM     H18T     HAL3     0.900000E-01   1.00800           0
      1610 MEMB     13       23SM     H18U     HAL3     0.900000E-01   1.00800           0
      1611 MEMB     13       23SM     C1F      C        0.550000       12.0110           0
      1612 MEMB     13       23SM     OF       O       -0.600000       15.9994           0
      1613 MEMB     13       23SM     C2F      CTL2    -0.700000E-01   12.0110           0
      1614 MEMB     13       23SM     H2F      HAL2     0.600000E-01   1.00800           0
      1615 MEMB     13       23SM     H2G      HAL2     0.600000E-01   1.00800           0
      1616 MEMB     13       23SM     C3F      CTL2    -0.180000       12.0110           0
      1617 MEMB     13       23SM     H3F      HAL2     0.900000E-01   1.00800           0
      1618 MEMB     13       23SM     H3G      HAL2     0.900000E-01   1.00800           0
      1619 MEMB     13       23SM     C4F      CTL2    -0.180000       12.0110           0
      1620 MEMB     13       23SM     H4F      HAL2     0.900000E-01   1.00800           0
      1621 MEMB     13       23SM     H4G      HAL2     0.900000E-01   1.00800           0
      1622 MEMB     13       23SM     C5F      CTL2    -0.180000       12.0110           0
      1623 MEMB     13       23SM     H5F      HAL2     0.900000E-01   1.00800           0
      1624 MEMB     13       23SM     H5G      HAL2     0.900000E-01   1.00800           0
      1625 MEMB     13       23SM     C6F      CTL2    -0.180000       12.0110           0
      1626 MEMB     13       23SM     H6F      HAL2     0.900000E-01   1.00800           0
      1627 MEMB     13       23SM     H6G      HAL2     0.900000E-01   1.00800           0
      1628 MEMB     13       23SM     C7F      CTL2    -0.180000       12.0110           0
      1629 MEMB     13       23SM     H7F      HAL2     0.900000E-01   1.00800           0
      1630 MEMB     13       23SM     H7G      HAL2     0.900000E-01   1.00800           0
      1631 MEMB     13       23SM     C8F      CTL2    -0.180000       12.0110           0
      1632 MEMB     13       23SM     H8F      HAL2     0.900000E-01   1.00800           0
      1633 MEMB     13       23SM     H8G      HAL2     0.900000E-01   1.00800           0
      1634 MEMB     13       23SM     C9F      CTL2    -0.180000       12.0110           0
      1635 MEMB     13       23SM     H9F      HAL2     0.900000E-01   1.00800           0
      1636 MEMB     13       23SM     H9G      HAL2     0.900000E-01   1.00800           0
      1637 MEMB     13       23SM     C10F     CTL2    -0.180000       12.0110           0
      1638 MEMB     13       23SM     H10F     HAL2     0.900000E-01   1.00800           0
      1639 MEMB     13       23SM     H10G     HAL2     0.900000E-01   1.00800           0
      1640 MEMB     13       23SM     C11F     CTL2    -0.180000       12.0110           0
      1641 MEMB     13       23SM     H11F     HAL2     0.900000E-01   1.00800           0
      1642 MEMB     13       23SM     H11G     HAL2     0.900000E-01   1.00800           0
      1643 MEMB     13       23SM     C12F     CTL2    -0.180000       12.0110           0
      1644 MEMB     13       23SM     H12F     HAL2     0.900000E-01   1.00800           0
      1645 MEMB     13       23SM     H12G     HAL2     0.900000E-01   1.00800           0
      1646 MEMB     13       23SM     C13F     CTL2    -0.180000       12.0110           0
      1647 MEMB     13       23SM     H13F     HAL2     0.900000E-01   1.00800           0
      1648 MEMB     13       23SM     H13G     HAL2     0.900000E-01   1.00800           0
      1649 MEMB     13       23SM     C14F     CTL2    -0.180000       12.0110           0
      1650 MEMB     13       23SM     H14F     HAL2     0.900000E-01   1.00800           0
      1651 MEMB     13       23SM     H14G     HAL2     0.900000E-01   1.00800           0
      1652 MEMB     13       23SM     C15F     CTL2    -0.180000       12.0110           0
      1653 MEMB     13       23SM     H15F     HAL2     0.900000E-01   1.00800           0
      1654 MEMB     13       23SM     H15G     HAL2     0.900000E-01   1.00800           0
      1655 MEMB     13       23SM     C16F     CTL2    -0.180000       12.0110           0
      1656 MEMB     13       23SM     H16F     HAL2     0.900000E-01   1.00800           0
      1657 MEMB     13       23SM     H16G     HAL2     0.900000E-01   1.00800           0
      1658 MEMB     13       23SM     C17F     CTL2    -0.180000       12.0110           0
      1659 MEMB     13       23SM     H17F     HAL2     0.900000E-01   1.00800           0
      1660 MEMB     13       23SM     H17G     HAL2     0.900000E-01   1.00800           0
      1661 MEMB     13       23SM     C18F     CTL2    -0.180000       12.0110           0
      1662 MEMB     13       23SM     H18F     HAL2     0.900000E-01   1.00800           0
      1663 MEMB     13       23SM     H18G     HAL2     0.900000E-01   1.00800           0
      1664 MEMB     13       23SM     C19F     CTL2    -0.180000       12.0110           0
      1665 MEMB     13       23SM     H19F     HAL2     0.900000E-01   1.00800           0
      1666 MEMB     13       23SM     H19G     HAL2     0.900000E-01   1.00800           0
      1667 MEMB     13       23SM     C20F     CTL2    -0.180000       12.0110           0
      1668 MEMB     13       23SM     H20F     HAL2     0.900000E-01   1.00800           0
      1669 MEMB     13       23SM     H20G     HAL2     0.900000E-01   1.00800           0
      1670 MEMB     13       23SM     C21F     CTL2    -0.180000       12.0110           0
      1671 MEMB     13       23SM     H21F     HAL2     0.900000E-01   1.00800           0
      1672 MEMB     13       23SM     H21G     HAL2     0.900000E-01   1.00800           0
      1673 MEMB     13       23SM     C22F     CTL2    -0.180000       12.0110           0
      1674 MEMB     13       23SM     H22F     HAL2     0.900000E-01   1.00800           0
      1675 MEMB     13       23SM     H22G     HAL2     0.900000E-01   1.00800           0
      1676 MEMB     13       23SM     C23F     CTL3    -0.270000       12.0110           0
      1677 MEMB     13       23SM     H23F     HAL3     0.900000E-01   1.00800           0
      1678 MEMB     13       23SM     H23G     HAL3     0.900000E-01   1.00800           0
      1679 MEMB     13       23SM     H23H     HAL3     0.900000E-01   1.00800           0
      1680 MEMB     14       CHL1     C3       CRL1     0.140000       12.0110           0
      1681 MEMB     14       CHL1     H3       HGA1     0.900000E-01   1.00800           0
      1682 MEMB     14       CHL1     O3       OHL     -0.660000       15.9994           0
      1683 MEMB     14       CHL1     H3'      HOL      0.430000       1.00800           0
      1684 MEMB     14       CHL1     C4       CRL2    -0.180000       12.0110           0
      1685 MEMB     14       CHL1     H4A      HGA2     0.900000E-01   1.00800           0
      1686 MEMB     14       CHL1     H4B      HGA2     0.900000E-01   1.00800           0
      1687 MEMB     14       CHL1     C5       CEL1      0.00000       12.0110           0
      1688 MEMB     14       CHL1     C6       CEL1    -0.150000       12.0110           0
      1689 MEMB     14       CHL1     H6       HEL1     0.150000       1.00800           0
      1690 MEMB     14       CHL1     C7       CRL2    -0.180000       12.0110           0
      1691 MEMB     14       CHL1     H7A      HGA2     0.900000E-01   1.00800           0
      1692 MEMB     14       CHL1     H7B      HGA2     0.900000E-01   1.00800           0
      1693 MEMB     14       CHL1     C8       CRL1    -0.900000E-01   12.0110           0
      1694 MEMB     14       CHL1     H8       HGA1     0.900000E-01   1.00800           0
      1695 MEMB     14       CHL1     C14      CRL1    -0.900000E-01   12.0110           0
      1696 MEMB     14       CHL1     H14      HGA1     0.900000E-01   1.00800           0
      1697 MEMB     14       CHL1     C15      CRL2    -0.180000       12.0110           0
      1698 MEMB     14       CHL1     H15A     HGA2     0.900000E-01   1.00800           0
      1699 MEMB     14       CHL1     H15B     HGA2     0.900000E-01   1.00800           0
      1700 MEMB     14       CHL1     C16      CRL2    -0.180000       12.0110           0
      1701 MEMB     14       CHL1     H16A     HGA2     0.900000E-01   1.00800           0
      1702 MEMB     14       CHL1     H16B     HGA2     0.900000E-01   1.00800           0
      1703 MEMB     14       CHL1     C17      CRL1    -0.900000E-01   12.0110           0
      1704 MEMB     14       CHL1     H17      HGA1     0.900000E-01   1.00800           0
      1705 MEMB     14       CHL1     C13      CRL1      0.00000       12.0110           0
      1706 MEMB     14       CHL1     C18      CTL3    -0.270000       12.0110           0
      1707 MEMB     14       CHL1     H18A     HAL3     0.900000E-01   1.00800           0
      1708 MEMB     14       CHL1     H18B     HAL3     0.900000E-01   1.00800           0
      1709 MEMB     14       CHL1     H18C     HAL3     0.900000E-01   1.00800           0
      1710 MEMB     14       CHL1     C12      CRL2    -0.180000       12.0110           0
      1711 MEMB     14       CHL1     H12A     HGA2     0.900000E-01   1.00800           0
      1712 MEMB     14       CHL1     H12B     HGA2     0.900000E-01   1.00800           0
      1713 MEMB     14       CHL1     C11      CRL2    -0.180000       12.0110           0
      1714 MEMB     14       CHL1     H11A     HGA2     0.900000E-01   1.00800           0
      1715 MEMB     14       CHL1     H11B     HGA2     0.900000E-01   1.00800           0
      1716 MEMB     14       CHL1     C9       CRL1    -0.900000E-01   12.0110           0
      1717 MEMB     14       CHL1     H9       HGA1     0.900000E-01   1.00800           0
      1718 MEMB     14       CHL1     C10      CRL1      0.00000       12.0110           0
      1719 MEMB     14       CHL1     C19      CTL3    -0.270000       12.0110           0
      1720 MEMB     14       CHL1     H19A     HAL3     0.900000E-01   1.00800           0
      1721 MEMB     14       CHL1     H19B     HAL3     0.900000E-01   1.00800           0
      1722 MEMB     14       CHL1     H19C     HAL3     0.900000E-01   1.00800           0
      1723 MEMB     14       CHL1     C1       CRL2    -0.180000       12.0110           0
      1724 MEMB     14       CHL1     H1A      HGA2     0.900000E-01   1.00800           0
      1725 MEMB     14       CHL1     H1B      HGA2     0.900000E-01   1.00800           0
      1726 MEMB     14       CHL1     C2       CRL2    -0.180000       12.0110           0
      1727 MEMB     14       CHL1     H2A      HGA2     0.900000E-01   1.00800           0
      1728 MEMB     14       CHL1     H2B      HGA2     0.900000E-01   1.00800           0
      1729 MEMB     14       CHL1     C20      CTL1    -0.900000E-01   12.0110           0
      1730 MEMB     14       CHL1     H20      HAL1     0.900000E-01   1.00800           0
      1731 MEMB     14       CHL1     C21      CTL3    -0.270000       12.0110           0
      1732 MEMB     14       CHL1     H21A     HAL3     0.900000E-01   1.00800           0
      1733 MEMB     14       CHL1     H21B     HAL3     0.900000E-01   1.00800           0
      1734 MEMB     14       CHL1     H21C     HAL3     0.900000E-01   1.00800           0
      1735 MEMB     14       CHL1     C22      CTL2    -0.180000       12.0110           0
      1736 MEMB     14       CHL1     H22A     HAL2     0.900000E-01   1.00800           0
      1737 MEMB     14       CHL1     H22B     HAL2     0.900000E-01   1.00800           0
      1738 MEMB     14       CHL1     C23      CTL2    -0.180000       12.0110           0
      1739 MEMB     14       CHL1     H23A     HAL2     0.900000E-01   1.00800           0
      1740 MEMB     14       CHL1     H23B     HAL2     0.900000E-01   1.00800           0
      1741 MEMB     14       CHL1     C24      CTL2    -0.180000       12.0110           0
      1742 MEMB     14       CHL1     H24A     HAL2     0.900000E-01   1.00800           0
      1743 MEMB     14       CHL1     H24B     HAL2     0.900000E-01   1.00800           0
      1744 MEMB     14       CHL1     C25      CTL1    -0.900000E-01   12.0110           0
      1745 MEMB     14       CHL1     H25      HAL1     0.900000E-01   1.00800           0
      1746 MEMB     14       CHL1     C26      CTL3    -0.270000       12.0110           0
      1747 MEMB     14       CHL1     H26A     HAL3     0.900000E-01   1.00800           0
      1748 MEMB     14       CHL1     H26B     HAL3     0.900000E-01   1.00800           0
      1749 MEMB     14       CHL1     H26C     HAL3     0.900000E-01   1.00800           0
      1750 MEMB     14       CHL1     C27      CTL3    -0.270000       12.0110           0
      1751 MEMB     14       CHL1     H27A     HAL3     0.900000E-01   1.00800           0
      1752 MEMB     14       CHL1     H27B     HAL3     0.900000E-01   1.00800           0
      1753 MEMB     14       CHL1     H27C     HAL3     0.900000E-01   1.00800           0
      1754 MEMB     15       DOPE     N        NH3L    -0.300000       14.0070           0
      1755 MEMB     15       DOPE     HN1      HCL      0.330000       1.00800           0
      1756 MEMB     15       DOPE     HN2      HCL      0.330000       1.00800           0
      1757 MEMB     15       DOPE     HN3      HCL      0.330000       1.00800           0
      1758 MEMB     15       DOPE     C12      CTL2     0.130000       12.0110           0
      1759 MEMB     15       DOPE     H12A     HAL2     0.900000E-01   1.00800           0
      1760 MEMB     15       DOPE     H12B     HAL2     0.900000E-01   1.00800           0
      1761 MEMB     15       DOPE     C11      CTL2    -0.800000E-01   12.0110           0
      1762 MEMB     15       DOPE     H11A     HAL2     0.900000E-01   1.00800           0
      1763 MEMB     15       DOPE     H11B     HAL2     0.900000E-01   1.00800           0
      1764 MEMB     15       DOPE     P        PL        1.50000       30.9740           0
      1765 MEMB     15       DOPE     O13      O2L     -0.780000       15.9994           0
      1766 MEMB     15       DOPE     O14      O2L     -0.780000       15.9994           0
      1767 MEMB     15       DOPE     O11      OSLP    -0.570000       15.9994           0
      1768 MEMB     15       DOPE     O12      OSLP    -0.570000       15.9994           0
      1769 MEMB     15       DOPE     C1       CTL2    -0.800000E-01   12.0110           0
      1770 MEMB     15       DOPE     HA       HAL2     0.900000E-01   1.00800           0
      1771 MEMB     15       DOPE     HB       HAL2     0.900000E-01   1.00800           0
      1772 MEMB     15       DOPE     C2       CTL1     0.170000       12.0110           0
      1773 MEMB     15       DOPE     HS       HAL1     0.900000E-01   1.00800           0
      1774 MEMB     15       DOPE     O21      OSL     -0.490000       15.9994           0
      1775 MEMB     15       DOPE     C21      CL       0.900000       12.0110           0
      1776 MEMB     15       DOPE     O22      OBL     -0.630000       15.9994           0
      1777 MEMB     15       DOPE     C22      CTL2    -0.220000       12.0110           0
      1778 MEMB     15       DOPE     H2R      HAL2     0.900000E-01   1.00800           0
      1779 MEMB     15       DOPE     H2S      HAL2     0.900000E-01   1.00800           0
      1780 MEMB     15       DOPE     C3       CTL2     0.800000E-01   12.0110           0
      1781 MEMB     15       DOPE     HX       HAL2     0.900000E-01   1.00800           0
      1782 MEMB     15       DOPE     HY       HAL2     0.900000E-01   1.00800           0
      1783 MEMB     15       DOPE     O31      OSL     -0.490000       15.9994           0
      1784 MEMB     15       DOPE     C31      CL       0.900000       12.0110           0
      1785 MEMB     15       DOPE     O32      OBL     -0.630000       15.9994           0
      1786 MEMB     15       DOPE     C32      CTL2    -0.220000       12.0110           0
      1787 MEMB     15       DOPE     H2X      HAL2     0.900000E-01   1.00800           0
      1788 MEMB     15       DOPE     H2Y      HAL2     0.900000E-01   1.00800           0
      1789 MEMB     15       DOPE     C23      CTL2    -0.180000       12.0110           0
      1790 MEMB     15       DOPE     H3R      HAL2     0.900000E-01   1.00800           0
      1791 MEMB     15       DOPE     H3S      HAL2     0.900000E-01   1.00800           0
      1792 MEMB     15       DOPE     C24      CTL2    -0.180000       12.0110           0
      1793 MEMB     15       DOPE     H4R      HAL2     0.900000E-01   1.00800           0
      1794 MEMB     15       DOPE     H4S      HAL2     0.900000E-01   1.00800           0
      1795 MEMB     15       DOPE     C25      CTL2    -0.180000       12.0110           0
      1796 MEMB     15       DOPE     H5R      HAL2     0.900000E-01   1.00800           0
      1797 MEMB     15       DOPE     H5S      HAL2     0.900000E-01   1.00800           0
      1798 MEMB     15       DOPE     C26      CTL2    -0.180000       12.0110           0
      1799 MEMB     15       DOPE     H6R      HAL2     0.900000E-01   1.00800           0
      1800 MEMB     15       DOPE     H6S      HAL2     0.900000E-01   1.00800           0
      1801 MEMB     15       DOPE     C27      CTL2    -0.180000       12.0110           0
      1802 MEMB     15       DOPE     H7R      HAL2     0.900000E-01   1.00800           0
      1803 MEMB     15       DOPE     H7S      HAL2     0.900000E-01   1.00800           0
      1804 MEMB     15       DOPE     C28      CTL2    -0.180000       12.0110           0
      1805 MEMB     15       DOPE     H8R      HAL2     0.900000E-01   1.00800           0
      1806 MEMB     15       DOPE     H8S      HAL2     0.900000E-01   1.00800           0
      1807 MEMB     15       DOPE     C29      CEL1    -0.150000       12.0110           0
      1808 MEMB     15       DOPE     H9R      HEL1     0.150000       1.00800           0
      1809 MEMB     15       DOPE     C210     CEL1    -0.150000       12.0110           0
      1810 MEMB     15       DOPE     H10R     HEL1     0.150000       1.00800           0
      1811 MEMB     15       DOPE     C211     CTL2    -0.180000       12.0110           0
      1812 MEMB     15       DOPE     H11R     HAL2     0.900000E-01   1.00800           0
      1813 MEMB     15       DOPE     H11S     HAL2     0.900000E-01   1.00800           0
      1814 MEMB     15       DOPE     C212     CTL2    -0.180000       12.0110           0
      1815 MEMB     15       DOPE     H12R     HAL2     0.900000E-01   1.00800           0
      1816 MEMB     15       DOPE     H12S     HAL2     0.900000E-01   1.00800           0
      1817 MEMB     15       DOPE     C213     CTL2    -0.180000       12.0110           0
      1818 MEMB     15       DOPE     H13R     HAL2     0.900000E-01   1.00800           0
      1819 MEMB     15       DOPE     H13S     HAL2     0.900000E-01   1.00800           0
      1820 MEMB     15       DOPE     C214     CTL2    -0.180000       12.0110           0
      1821 MEMB     15       DOPE     H14R     HAL2     0.900000E-01   1.00800           0
      1822 MEMB     15       DOPE     H14S     HAL2     0.900000E-01   1.00800           0
      1823 MEMB     15       DOPE     C215     CTL2    -0.180000       12.0110           0
      1824 MEMB     15       DOPE     H15R     HAL2     0.900000E-01   1.00800           0
      1825 MEMB     15       DOPE     H15S     HAL2     0.900000E-01   1.00800           0
      1826 MEMB     15       DOPE     C216     CTL2    -0.180000       12.0110           0
      1827 MEMB     15       DOPE     H16R     HAL2     0.900000E-01   1.00800           0
      1828 MEMB     15       DOPE     H16S     HAL2     0.900000E-01   1.00800           0
      1829 MEMB     15       DOPE     C217     CTL2    -0.180000       12.0110           0
      1830 MEMB     15       DOPE     H17R     HAL2     0.900000E-01   1.00800           0
      1831 MEMB     15       DOPE     H17S     HAL2     0.900000E-01   1.00800           0
      1832 MEMB     15       DOPE     C218     CTL3    -0.270000       12.0110           0
      1833 MEMB     15       DOPE     H18R     HAL3     0.900000E-01   1.00800           0
      1834 MEMB     15       DOPE     H18S     HAL3     0.900000E-01   1.00800           0
      1835 MEMB     15       DOPE     H18T     HAL3     0.900000E-01   1.00800           0
      1836 MEMB     15       DOPE     C33      CTL2    -0.180000       12.0110           0
      1837 MEMB     15       DOPE     H3X      HAL2     0.900000E-01   1.00800           0
      1838 MEMB     15       DOPE     H3Y      HAL2     0.900000E-01   1.00800           0
      1839 MEMB     15       DOPE     C34      CTL2    -0.180000       12.0110           0
      1840 MEMB     15       DOPE     H4X      HAL2     0.900000E-01   1.00800           0
      1841 MEMB     15       DOPE     H4Y      HAL2     0.900000E-01   1.00800           0
      1842 MEMB     15       DOPE     C35      CTL2    -0.180000       12.0110           0
      1843 MEMB     15       DOPE     H5X      HAL2     0.900000E-01   1.00800           0
      1844 MEMB     15       DOPE     H5Y      HAL2     0.900000E-01   1.00800           0
      1845 MEMB     15       DOPE     C36      CTL2    -0.180000       12.0110           0
      1846 MEMB     15       DOPE     H6X      HAL2     0.900000E-01   1.00800           0
      1847 MEMB     15       DOPE     H6Y      HAL2     0.900000E-01   1.00800           0
      1848 MEMB     15       DOPE     C37      CTL2    -0.180000       12.0110           0
      1849 MEMB     15       DOPE     H7X      HAL2     0.900000E-01   1.00800           0
      1850 MEMB     15       DOPE     H7Y      HAL2     0.900000E-01   1.00800           0
      1851 MEMB     15       DOPE     C38      CTL2    -0.180000       12.0110           0
      1852 MEMB     15       DOPE     H8X      HAL2     0.900000E-01   1.00800           0
      1853 MEMB     15       DOPE     H8Y      HAL2     0.900000E-01   1.00800           0
      1854 MEMB     15       DOPE     C39      CEL1    -0.150000       12.0110           0
      1855 MEMB     15       DOPE     H9X      HEL1     0.150000       1.00800           0
      1856 MEMB     15       DOPE     C310     CEL1    -0.150000       12.0110           0
      1857 MEMB     15       DOPE     H10X     HEL1     0.150000       1.00800           0
      1858 MEMB     15       DOPE     C311     CTL2    -0.180000       12.0110           0
      1859 MEMB     15       DOPE     H11X     HAL2     0.900000E-01   1.00800           0
      1860 MEMB     15       DOPE     H11Y     HAL2     0.900000E-01   1.00800           0
      1861 MEMB     15       DOPE     C312     CTL2    -0.180000       12.0110           0
      1862 MEMB     15       DOPE     H12X     HAL2     0.900000E-01   1.00800           0
      1863 MEMB     15       DOPE     H12Y     HAL2     0.900000E-01   1.00800           0
      1864 MEMB     15       DOPE     C313     CTL2    -0.180000       12.0110           0
      1865 MEMB     15       DOPE     H13X     HAL2     0.900000E-01   1.00800           0
      1866 MEMB     15       DOPE     H13Y     HAL2     0.900000E-01   1.00800           0
      1867 MEMB     15       DOPE     C314     CTL2    -0.180000       12.0110           0
      1868 MEMB     15       DOPE     H14X     HAL2     0.900000E-01   1.00800           0
      1869 MEMB     15       DOPE     H14Y     HAL2     0.900000E-01   1.00800           0
      1870 MEMB     15       DOPE     C315     CTL2    -0.180000       12.0110           0
      1871 MEMB     15       DOPE     H15X     HAL2     0.900000E-01   1.00800           0
      1872 MEMB     15       DOPE     H15Y     HAL2     0.900000E-01   1.00800           0
      1873 MEMB     15       DOPE     C316     CTL2    -0.180000       12.0110           0
      1874 MEMB     15       DOPE     H16X     HAL2     0.900000E-01   1.00800           0
      1875 MEMB     15       DOPE     H16Y     HAL2     0.900000E-01   1.00800           0
      1876 MEMB     15       DOPE     C317     CTL2    -0.180000       12.0110           0
      1877 MEMB     15       DOPE     H17X     HAL2     0.900000E-01   1.00800           0
      1878 MEMB     15       DOPE     H17Y     HAL2     0.900000E-01   1.00800           0
      1879 MEMB     15       DOPE     C318     CTL3    -0.270000       12.0110           0
      1880 MEMB     15       DOPE     H18X     HAL3     0.900000E-01   1.00800           0
      1881 MEMB     15       DOPE     H18Y     HAL3     0.900000E-01   1.00800           0
      1882 MEMB     15       DOPE     H18Z     HAL3     0.900000E-01   1.00800           0
      1883 MEMB     16       DOPC     N        NTL     -0.600000       14.0070           0
      1884 MEMB     16       DOPC     C12      CTL2    -0.100000       12.0110           0
      1885 MEMB     16       DOPC     H12A     HL       0.250000       1.00800           0
      1886 MEMB     16       DOPC     H12B     HL       0.250000       1.00800           0
      1887 MEMB     16       DOPC     C13      CTL5    -0.350000       12.0110           0
      1888 MEMB     16       DOPC     H13A     HL       0.250000       1.00800           0
      1889 MEMB     16       DOPC     H13B     HL       0.250000       1.00800           0
      1890 MEMB     16       DOPC     H13C     HL       0.250000       1.00800           0
      1891 MEMB     16       DOPC     C14      CTL5    -0.350000       12.0110           0
      1892 MEMB     16       DOPC     H14A     HL       0.250000       1.00800           0
      1893 MEMB     16       DOPC     H14B     HL       0.250000       1.00800           0
      1894 MEMB     16       DOPC     H14C     HL       0.250000       1.00800           0
      1895 MEMB     16       DOPC     C15      CTL5    -0.350000       12.0110           0
      1896 MEMB     16       DOPC     H15A     HL       0.250000       1.00800           0
      1897 MEMB     16       DOPC     H15B     HL       0.250000       1.00800           0
      1898 MEMB     16       DOPC     H15C     HL       0.250000       1.00800           0
      1899 MEMB     16       DOPC     C11      CTL2    -0.800000E-01   12.0110           0
      1900 MEMB     16       DOPC     H11A     HAL2     0.900000E-01   1.00800           0
      1901 MEMB     16       DOPC     H11B     HAL2     0.900000E-01   1.00800           0
      1902 MEMB     16       DOPC     P        PL        1.50000       30.9740           0
      1903 MEMB     16       DOPC     O13      O2L     -0.780000       15.9994           0
      1904 MEMB     16       DOPC     O14      O2L     -0.780000       15.9994           0
      1905 MEMB     16       DOPC     O12      OSLP    -0.570000       15.9994           0
      1906 MEMB     16       DOPC     O11      OSLP    -0.570000       15.9994           0
      1907 MEMB     16       DOPC     C1       CTL2    -0.800000E-01   12.0110           0
      1908 MEMB     16       DOPC     HA       HAL2     0.900000E-01   1.00800           0
      1909 MEMB     16       DOPC     HB       HAL2     0.900000E-01   1.00800           0
      1910 MEMB     16       DOPC     C2       CTL1     0.170000       12.0110           0
      1911 MEMB     16       DOPC     HS       HAL1     0.900000E-01   1.00800           0
      1912 MEMB     16       DOPC     O21      OSL     -0.490000       15.9994           0
      1913 MEMB     16       DOPC     C21      CL       0.900000       12.0110           0
      1914 MEMB     16       DOPC     O22      OBL     -0.630000       15.9994           0
      1915 MEMB     16       DOPC     C22      CTL2    -0.220000       12.0110           0
      1916 MEMB     16       DOPC     H2R      HAL2     0.900000E-01   1.00800           0
      1917 MEMB     16       DOPC     H2S      HAL2     0.900000E-01   1.00800           0
      1918 MEMB     16       DOPC     C3       CTL2     0.800000E-01   12.0110           0
      1919 MEMB     16       DOPC     HX       HAL2     0.900000E-01   1.00800           0
      1920 MEMB     16       DOPC     HY       HAL2     0.900000E-01   1.00800           0
      1921 MEMB     16       DOPC     O31      OSL     -0.490000       15.9994           0
      1922 MEMB     16       DOPC     C31      CL       0.900000       12.0110           0
      1923 MEMB     16       DOPC     O32      OBL     -0.630000       15.9994           0
      1924 MEMB     16       DOPC     C32      CTL2    -0.220000       12.0110           0
      1925 MEMB     16       DOPC     H2X      HAL2     0.900000E-01   1.00800           0
      1926 MEMB     16       DOPC     H2Y      HAL2     0.900000E-01   1.00800           0
      1927 MEMB     16       DOPC     C23      CTL2    -0.180000       12.0110           0
      1928 MEMB     16       DOPC     H3R      HAL2     0.900000E-01   1.00800           0
      1929 MEMB     16       DOPC     H3S      HAL2     0.900000E-01   1.00800           0
      1930 MEMB     16       DOPC     C24      CTL2    -0.180000       12.0110           0
      1931 MEMB     16       DOPC     H4R      HAL2     0.900000E-01   1.00800           0
      1932 MEMB     16       DOPC     H4S      HAL2     0.900000E-01   1.00800           0
      1933 MEMB     16       DOPC     C25      CTL2    -0.180000       12.0110           0
      1934 MEMB     16       DOPC     H5R      HAL2     0.900000E-01   1.00800           0
      1935 MEMB     16       DOPC     H5S      HAL2     0.900000E-01   1.00800           0
      1936 MEMB     16       DOPC     C26      CTL2    -0.180000       12.0110           0
      1937 MEMB     16       DOPC     H6R      HAL2     0.900000E-01   1.00800           0
      1938 MEMB     16       DOPC     H6S      HAL2     0.900000E-01   1.00800           0
      1939 MEMB     16       DOPC     C27      CTL2    -0.180000       12.0110           0
      1940 MEMB     16       DOPC     H7R      HAL2     0.900000E-01   1.00800           0
      1941 MEMB     16       DOPC     H7S      HAL2     0.900000E-01   1.00800           0
      1942 MEMB     16       DOPC     C28      CTL2    -0.180000       12.0110           0
      1943 MEMB     16       DOPC     H8R      HAL2     0.900000E-01   1.00800           0
      1944 MEMB     16       DOPC     H8S      HAL2     0.900000E-01   1.00800           0
      1945 MEMB     16       DOPC     C29      CEL1    -0.150000       12.0110           0
      1946 MEMB     16       DOPC     H9R      HEL1     0.150000       1.00800           0
      1947 MEMB     16       DOPC     C210     CEL1    -0.150000       12.0110           0
      1948 MEMB     16       DOPC     H10R     HEL1     0.150000       1.00800           0
      1949 MEMB     16       DOPC     C211     CTL2    -0.180000       12.0110           0
      1950 MEMB     16       DOPC     H11R     HAL2     0.900000E-01   1.00800           0
      1951 MEMB     16       DOPC     H11S     HAL2     0.900000E-01   1.00800           0
      1952 MEMB     16       DOPC     C212     CTL2    -0.180000       12.0110           0
      1953 MEMB     16       DOPC     H12R     HAL2     0.900000E-01   1.00800           0
      1954 MEMB     16       DOPC     H12S     HAL2     0.900000E-01   1.00800           0
      1955 MEMB     16       DOPC     C213     CTL2    -0.180000       12.0110           0
      1956 MEMB     16       DOPC     H13R     HAL2     0.900000E-01   1.00800           0
      1957 MEMB     16       DOPC     H13S     HAL2     0.900000E-01   1.00800           0
      1958 MEMB     16       DOPC     C214     CTL2    -0.180000       12.0110           0
      1959 MEMB     16       DOPC     H14R     HAL2     0.900000E-01   1.00800           0
      1960 MEMB     16       DOPC     H14S     HAL2     0.900000E-01   1.00800           0
      1961 MEMB     16       DOPC     C215     CTL2    -0.180000       12.0110           0
      1962 MEMB     16       DOPC     H15R     HAL2     0.900000E-01   1.00800           0
      1963 MEMB     16       DOPC     H15S     HAL2     0.900000E-01   1.00800           0
      1964 MEMB     16       DOPC     C216     CTL2    -0.180000       12.0110           0
      1965 MEMB     16       DOPC     H16R     HAL2     0.900000E-01   1.00800           0
      1966 MEMB     16       DOPC     H16S     HAL2     0.900000E-01   1.00800           0
      1967 MEMB     16       DOPC     C217     CTL2    -0.180000       12.0110           0
      1968 MEMB     16       DOPC     H17R     HAL2     0.900000E-01   1.00800           0
      1969 MEMB     16       DOPC     H17S     HAL2     0.900000E-01   1.00800           0
      1970 MEMB     16       DOPC     C218     CTL3    -0.270000       12.0110           0
      1971 MEMB     16       DOPC     H18R     HAL3     0.900000E-01   1.00800           0
      1972 MEMB     16       DOPC     H18S     HAL3     0.900000E-01   1.00800           0
      1973 MEMB     16       DOPC     H18T     HAL3     0.900000E-01   1.00800           0
      1974 MEMB     16       DOPC     C33      CTL2    -0.180000       12.0110           0
      1975 MEMB     16       DOPC     H3X      HAL2     0.900000E-01   1.00800           0
      1976 MEMB     16       DOPC     H3Y      HAL2     0.900000E-01   1.00800           0
      1977 MEMB     16       DOPC     C34      CTL2    -0.180000       12.0110           0
      1978 MEMB     16       DOPC     H4X      HAL2     0.900000E-01   1.00800           0
      1979 MEMB     16       DOPC     H4Y      HAL2     0.900000E-01   1.00800           0
      1980 MEMB     16       DOPC     C35      CTL2    -0.180000       12.0110           0
      1981 MEMB     16       DOPC     H5X      HAL2     0.900000E-01   1.00800           0
      1982 MEMB     16       DOPC     H5Y      HAL2     0.900000E-01   1.00800           0
      1983 MEMB     16       DOPC     C36      CTL2    -0.180000       12.0110           0
      1984 MEMB     16       DOPC     H6X      HAL2     0.900000E-01   1.00800           0
      1985 MEMB     16       DOPC     H6Y      HAL2     0.900000E-01   1.00800           0
      1986 MEMB     16       DOPC     C37      CTL2    -0.180000       12.0110           0
      1987 MEMB     16       DOPC     H7X      HAL2     0.900000E-01   1.00800           0
      1988 MEMB     16       DOPC     H7Y      HAL2     0.900000E-01   1.00800           0
      1989 MEMB     16       DOPC     C38      CTL2    -0.180000       12.0110           0
      1990 MEMB     16       DOPC     H8X      HAL2     0.900000E-01   1.00800           0
      1991 MEMB     16       DOPC     H8Y      HAL2     0.900000E-01   1.00800           0
      1992 MEMB     16       DOPC     C39      CEL1    -0.150000       12.0110           0
      1993 MEMB     16       DOPC     H9X      HEL1     0.150000       1.00800           0
      1994 MEMB     16       DOPC     C310     CEL1    -0.150000       12.0110           0
      1995 MEMB     16       DOPC     H10X     HEL1     0.150000       1.00800           0
      1996 MEMB     16       DOPC     C311     CTL2    -0.180000       12.0110           0
      1997 MEMB     16       DOPC     H11X     HAL2     0.900000E-01   1.00800           0
      1998 MEMB     16       DOPC     H11Y     HAL2     0.900000E-01   1.00800           0
      1999 MEMB     16       DOPC     C312     CTL2    -0.180000       12.0110           0
      2000 MEMB     16       DOPC     H12X     HAL2     0.900000E-01   1.00800           0
      2001 MEMB     16       DOPC     H12Y     HAL2     0.900000E-01   1.00800           0
      2002 MEMB     16       DOPC     C313     CTL2    -0.180000       12.0110           0
      2003 MEMB     16       DOPC     H13X     HAL2     0.900000E-01   1.00800           0
      2004 MEMB     16       DOPC     H13Y     HAL2     0.900000E-01   1.00800           0
      2005 MEMB     16       DOPC     C314     CTL2    -0.180000       12.0110           0
      2006 MEMB     16       DOPC     H14X     HAL2     0.900000E-01   1.00800           0
      2007 MEMB     16       DOPC     H14Y     HAL2     0.900000E-01   1.00800           0
      2008 MEMB     16       DOPC     C315     CTL2    -0.180000       12.0110           0
      2009 MEMB     16       DOPC     H15X     HAL2     0.900000E-01   1.00800           0
      2010 MEMB     16       DOPC     H15Y     HAL2     0.900000E-01   1.00800           0
      2011 MEMB     16       DOPC     C316     CTL2    -0.180000       12.0110           0
      2012 MEMB     16       DOPC     H16X     HAL2     0.900000E-01   1.00800           0
      2013 MEMB     16       DOPC     H16Y     HAL2     0.900000E-01   1.00800           0
      2014 MEMB     16       DOPC     C317     CTL2    -0.180000       12.0110           0
      2015 MEMB     16       DOPC     H17X     HAL2     0.900000E-01   1.00800           0
      2016 MEMB     16       DOPC     H17Y     HAL2     0.900000E-01   1.00800           0
      2017 MEMB     16       DOPC     C318     CTL3    -0.270000       12.0110           0
      2018 MEMB     16       DOPC     H18X     HAL3     0.900000E-01   1.00800           0
      2019 MEMB     16       DOPC     H18Y     HAL3     0.900000E-01   1.00800           0
      2020 MEMB     16       DOPC     H18Z     HAL3     0.900000E-01   1.00800           0
      2021 MEMB     17       23SM     N        NTL     -0.600000       14.0070           0
      2022 MEMB     17       23SM     C15      CTL5    -0.350000       12.0110           0
      2023 MEMB     17       23SM     H15A     HL       0.250000       1.00800           0
      2024 MEMB     17       23SM     H15B     HL       0.250000       1.00800           0
      2025 MEMB     17       23SM     H15C     HL       0.250000       1.00800           0
      2026 MEMB     17       23SM     C14      CTL5    -0.350000       12.0110           0
      2027 MEMB     17       23SM     H14A     HL       0.250000       1.00800           0
      2028 MEMB     17       23SM     H14B     HL       0.250000       1.00800           0
      2029 MEMB     17       23SM     H14C     HL       0.250000       1.00800           0
      2030 MEMB     17       23SM     C13      CTL5    -0.350000       12.0110           0
      2031 MEMB     17       23SM     H13A     HL       0.250000       1.00800           0
      2032 MEMB     17       23SM     H13B     HL       0.250000       1.00800           0
      2033 MEMB     17       23SM     H13C     HL       0.250000       1.00800           0
      2034 MEMB     17       23SM     C12      CTL2    -0.100000       12.0110           0
      2035 MEMB     17       23SM     H12A     HL       0.250000       1.00800           0
      2036 MEMB     17       23SM     H12B     HL       0.250000       1.00800           0
      2037 MEMB     17       23SM     C11      CTL2    -0.800000E-01   12.0110           0
      2038 MEMB     17       23SM     H11A     HAL2     0.900000E-01   1.00800           0
      2039 MEMB     17       23SM     H11B     HAL2     0.900000E-01   1.00800           0
      2040 MEMB     17       23SM     P        PL        1.50000       30.9740           0
      2041 MEMB     17       23SM     O13      O2L     -0.780000       15.9994           0
      2042 MEMB     17       23SM     O14      O2L     -0.780000       15.9994           0
      2043 MEMB     17       23SM     O11      OSLP    -0.570000       15.9994           0
      2044 MEMB     17       23SM     O12      OSLP    -0.570000       15.9994           0
      2045 MEMB     17       23SM     C1S      CTL2    -0.800000E-01   12.0110           0
      2046 MEMB     17       23SM     H1S      HAL2     0.900000E-01   1.00800           0
      2047 MEMB     17       23SM     H1T      HAL2     0.900000E-01   1.00800           0
      2048 MEMB     17       23SM     NF       NHL     -0.700000       14.0070           0
      2049 MEMB     17       23SM     HNF      H        0.350000       1.00800           0
      2050 MEMB     17       23SM     C2S      CTL1     0.300000       12.0110           0
      2051 MEMB     17       23SM     H2S      HAL1     0.500000E-01   1.00800           0
      2052 MEMB     17       23SM     C3S      CTO1     0.500000       12.0110           0
      2053 MEMB     17       23SM     H3S      HAL1    -0.110000       1.00800           0
      2054 MEMB     17       23SM     O3       OHL     -0.690000       15.9994           0
      2055 MEMB     17       23SM     HO3      HOL      0.300000       1.00800           0
      2056 MEMB     17       23SM     C4S      CEL3    -0.150000       12.0110           0
      2057 MEMB     17       23SM     H4S      HEL1     0.150000       1.00800           0
      2058 MEMB     17       23SM     C5S      CEL3    -0.150000       12.0110           0
      2059 MEMB     17       23SM     H5S      HEL1     0.150000       1.00800           0
      2060 MEMB     17       23SM     C6S      CTL2    -0.180000       12.0110           0
      2061 MEMB     17       23SM     H6S      HAL2     0.900000E-01   1.00800           0
      2062 MEMB     17       23SM     H6T      HAL2     0.900000E-01   1.00800           0
      2063 MEMB     17       23SM     C7S      CTL2    -0.180000       12.0110           0
      2064 MEMB     17       23SM     H7S      HAL2     0.900000E-01   1.00800           0
      2065 MEMB     17       23SM     H7T      HAL2     0.900000E-01   1.00800           0
      2066 MEMB     17       23SM     C8S      CTL2    -0.180000       12.0110           0
      2067 MEMB     17       23SM     H8S      HAL2     0.900000E-01   1.00800           0
      2068 MEMB     17       23SM     H8T      HAL2     0.900000E-01   1.00800           0
      2069 MEMB     17       23SM     C9S      CTL2    -0.180000       12.0110           0
      2070 MEMB     17       23SM     H9S      HAL2     0.900000E-01   1.00800           0
      2071 MEMB     17       23SM     H9T      HAL2     0.900000E-01   1.00800           0
      2072 MEMB     17       23SM     C10S     CTL2    -0.180000       12.0110           0
      2073 MEMB     17       23SM     H10S     HAL2     0.900000E-01   1.00800           0
      2074 MEMB     17       23SM     H10T     HAL2     0.900000E-01   1.00800           0
      2075 MEMB     17       23SM     C11S     CTL2    -0.180000       12.0110           0
      2076 MEMB     17       23SM     H11S     HAL2     0.900000E-01   1.00800           0
      2077 MEMB     17       23SM     H11T     HAL2     0.900000E-01   1.00800           0
      2078 MEMB     17       23SM     C12S     CTL2    -0.180000       12.0110           0
      2079 MEMB     17       23SM     H12S     HAL2     0.900000E-01   1.00800           0
      2080 MEMB     17       23SM     H12T     HAL2     0.900000E-01   1.00800           0
      2081 MEMB     17       23SM     C13S     CTL2    -0.180000       12.0110           0
      2082 MEMB     17       23SM     H13S     HAL2     0.900000E-01   1.00800           0
      2083 MEMB     17       23SM     H13T     HAL2     0.900000E-01   1.00800           0
      2084 MEMB     17       23SM     C14S     CTL2    -0.180000       12.0110           0
      2085 MEMB     17       23SM     H14S     HAL2     0.900000E-01   1.00800           0
      2086 MEMB     17       23SM     H14T     HAL2     0.900000E-01   1.00800           0
      2087 MEMB     17       23SM     C15S     CTL2    -0.180000       12.0110           0
      2088 MEMB     17       23SM     H15S     HAL2     0.900000E-01   1.00800           0
      2089 MEMB     17       23SM     H15T     HAL2     0.900000E-01   1.00800           0
      2090 MEMB     17       23SM     C16S     CTL2    -0.180000       12.0110           0
      2091 MEMB     17       23SM     H16S     HAL2     0.900000E-01   1.00800           0
      2092 MEMB     17       23SM     H16T     HAL2     0.900000E-01   1.00800           0
      2093 MEMB     17       23SM     C17S     CTL2    -0.180000       12.0110           0
      2094 MEMB     17       23SM     H17S     HAL2     0.900000E-01   1.00800           0
      2095 MEMB     17       23SM     H17T     HAL2     0.900000E-01   1.00800           0
      2096 MEMB     17       23SM     C18S     CTL3    -0.270000       12.0110           0
      2097 MEMB     17       23SM     H18S     HAL3     0.900000E-01   1.00800           0
      2098 MEMB     17       23SM     H18T     HAL3     0.900000E-01   1.00800           0
      2099 MEMB     17       23SM     H18U     HAL3     0.900000E-01   1.00800           0
      2100 MEMB     17       23SM     C1F      C        0.550000       12.0110           0
      2101 MEMB     17       23SM     OF       O       -0.600000       15.9994           0
      2102 MEMB     17       23SM     C2F      CTL2    -0.700000E-01   12.0110           0
      2103 MEMB     17       23SM     H2F      HAL2     0.600000E-01   1.00800           0
      2104 MEMB     17       23SM     H2G      HAL2     0.600000E-01   1.00800           0
      2105 MEMB     17       23SM     C3F      CTL2    -0.180000       12.0110           0
      2106 MEMB     17       23SM     H3F      HAL2     0.900000E-01   1.00800           0
      2107 MEMB     17       23SM     H3G      HAL2     0.900000E-01   1.00800           0
      2108 MEMB     17       23SM     C4F      CTL2    -0.180000       12.0110           0
      2109 MEMB     17       23SM     H4F      HAL2     0.900000E-01   1.00800           0
      2110 MEMB     17       23SM     H4G      HAL2     0.900000E-01   1.00800           0
      2111 MEMB     17       23SM     C5F      CTL2    -0.180000       12.0110           0
      2112 MEMB     17       23SM     H5F      HAL2     0.900000E-01   1.00800           0
      2113 MEMB     17       23SM     H5G      HAL2     0.900000E-01   1.00800           0
      2114 MEMB     17       23SM     C6F      CTL2    -0.180000       12.0110           0
      2115 MEMB     17       23SM     H6F      HAL2     0.900000E-01   1.00800           0
      2116 MEMB     17       23SM     H6G      HAL2     0.900000E-01   1.00800           0
      2117 MEMB     17       23SM     C7F      CTL2    -0.180000       12.0110           0
      2118 MEMB     17       23SM     H7F      HAL2     0.900000E-01   1.00800           0
      2119 MEMB     17       23SM     H7G      HAL2     0.900000E-01   1.00800           0
      2120 MEMB     17       23SM     C8F      CTL2    -0.180000       12.0110           0
      2121 MEMB     17       23SM     H8F      HAL2     0.900000E-01   1.00800           0
      2122 MEMB     17       23SM     H8G      HAL2     0.900000E-01   1.00800           0
      2123 MEMB     17       23SM     C9F      CTL2    -0.180000       12.0110           0
      2124 MEMB     17       23SM     H9F      HAL2     0.900000E-01   1.00800           0
      2125 MEMB     17       23SM     H9G      HAL2     0.900000E-01   1.00800           0
      2126 MEMB     17       23SM     C10F     CTL2    -0.180000       12.0110           0
      2127 MEMB     17       23SM     H10F     HAL2     0.900000E-01   1.00800           0
      2128 MEMB     17       23SM     H10G     HAL2     0.900000E-01   1.00800           0
      2129 MEMB     17       23SM     C11F     CTL2    -0.180000       12.0110           0
      2130 MEMB     17       23SM     H11F     HAL2     0.900000E-01   1.00800           0
      2131 MEMB     17       23SM     H11G     HAL2     0.900000E-01   1.00800           0
      2132 MEMB     17       23SM     C12F     CTL2    -0.180000       12.0110           0
      2133 MEMB     17       23SM     H12F     HAL2     0.900000E-01   1.00800           0
      2134 MEMB     17       23SM     H12G     HAL2     0.900000E-01   1.00800           0
      2135 MEMB     17       23SM     C13F     CTL2    -0.180000       12.0110           0
      2136 MEMB     17       23SM     H13F     HAL2     0.900000E-01   1.00800           0
      2137 MEMB     17       23SM     H13G     HAL2     0.900000E-01   1.00800           0
      2138 MEMB     17       23SM     C14F     CTL2    -0.180000       12.0110           0
      2139 MEMB     17       23SM     H14F     HAL2     0.900000E-01   1.00800           0
      2140 MEMB     17       23SM     H14G     HAL2     0.900000E-01   1.00800           0
      2141 MEMB     17       23SM     C15F     CTL2    -0.180000       12.0110           0
      2142 MEMB     17       23SM     H15F     HAL2     0.900000E-01   1.00800           0
      2143 MEMB     17       23SM     H15G     HAL2     0.900000E-01   1.00800           0
      2144 MEMB     17       23SM     C16F     CTL2    -0.180000       12.0110           0
      2145 MEMB     17       23SM     H16F     HAL2     0.900000E-01   1.00800           0
      2146 MEMB     17       23SM     H16G     HAL2     0.900000E-01   1.00800           0
      2147 MEMB     17       23SM     C17F     CTL2    -0.180000       12.0110           0
      2148 MEMB     17       23SM     H17F     HAL2     0.900000E-01   1.00800           0
      2149 MEMB     17       23SM     H17G     HAL2     0.900000E-01   1.00800           0
      2150 MEMB     17       23SM     C18F     CTL2    -0.180000       12.0110           0
      2151 MEMB     17       23SM     H18F     HAL2     0.900000E-01   1.00800           0
      2152 MEMB     17       23SM     H18G     HAL2     0.900000E-01   1.00800           0
      2153 MEMB     17       23SM     C19F     CTL2    -0.180000       12.0110           0
      2154 MEMB     17       23SM     H19F     HAL2     0.900000E-01   1.00800           0
      2155 MEMB     17       23SM     H19G     HAL2     0.900000E-01   1.00800           0
      2156 MEMB     17       23SM     C20F     CTL2    -0.180000       12.0110           0
      2157 MEMB     17       23SM     H20F     HAL2     0.900000E-01   1.00800           0
      2158 MEMB     17       23SM     H20G     HAL2     0.900000E-01   1.00800           0
      2159 MEMB     17       23SM     C21F     CTL2    -0.180000       12.0110           0
      2160 MEMB     17       23SM     H21F     HAL2     0.900000E-01   1.00800           0
      2161 MEMB     17       23SM     H21G     HAL2     0.900000E-01   1.00800           0
      2162 MEMB     17       23SM     C22F     CTL2    -0.180000       12.0110           0
      2163 MEMB     17       23SM     H22F     HAL2     0.900000E-01   1.00800           0
      2164 MEMB     17       23SM     H22G     HAL2     0.900000E-01   1.00800           0
      2165 MEMB     17       23SM     C23F     CTL3    -0.270000       12.0110           0
      2166 MEMB     17       23SM     H23F     HAL3     0.900000E-01   1.00800           0
      2167 MEMB     17       23SM     H23G     HAL3     0.900000E-01   1.00800           0
      2168 MEMB     17       23SM     H23H     HAL3     0.900000E-01   1.00800           0
      2169 MEMB     18       DOPC     N        NTL     -0.600000       14.0070           0
      2170 MEMB     18       DOPC     C12      CTL2    -0.100000       12.0110           0
      2171 MEMB     18       DOPC     H12A     HL       0.250000       1.00800           0
      2172 MEMB     18       DOPC     H12B     HL       0.250000       1.00800           0
      2173 MEMB     18       DOPC     C13      CTL5    -0.350000       12.0110           0
      2174 MEMB     18       DOPC     H13A     HL       0.250000       1.00800           0
      2175 MEMB     18       DOPC     H13B     HL       0.250000       1.00800           0
      2176 MEMB     18       DOPC     H13C     HL       0.250000       1.00800           0
      2177 MEMB     18       DOPC     C14      CTL5    -0.350000       12.0110           0
      2178 MEMB     18       DOPC     H14A     HL       0.250000       1.00800           0
      2179 MEMB     18       DOPC     H14B     HL       0.250000       1.00800           0
      2180 MEMB     18       DOPC     H14C     HL       0.250000       1.00800           0
      2181 MEMB     18       DOPC     C15      CTL5    -0.350000       12.0110           0
      2182 MEMB     18       DOPC     H15A     HL       0.250000       1.00800           0
      2183 MEMB     18       DOPC     H15B     HL       0.250000       1.00800           0
      2184 MEMB     18       DOPC     H15C     HL       0.250000       1.00800           0
      2185 MEMB     18       DOPC     C11      CTL2    -0.800000E-01   12.0110           0
      2186 MEMB     18       DOPC     H11A     HAL2     0.900000E-01   1.00800           0
      2187 MEMB     18       DOPC     H11B     HAL2     0.900000E-01   1.00800           0
      2188 MEMB     18       DOPC     P        PL        1.50000       30.9740           0
      2189 MEMB     18       DOPC     O13      O2L     -0.780000       15.9994           0
      2190 MEMB     18       DOPC     O14      O2L     -0.780000       15.9994           0
      2191 MEMB     18       DOPC     O12      OSLP    -0.570000       15.9994           0
      2192 MEMB     18       DOPC     O11      OSLP    -0.570000       15.9994           0
      2193 MEMB     18       DOPC     C1       CTL2    -0.800000E-01   12.0110           0
      2194 MEMB     18       DOPC     HA       HAL2     0.900000E-01   1.00800           0
      2195 MEMB     18       DOPC     HB       HAL2     0.900000E-01   1.00800           0
      2196 MEMB     18       DOPC     C2       CTL1     0.170000       12.0110           0
      2197 MEMB     18       DOPC     HS       HAL1     0.900000E-01   1.00800           0
      2198 MEMB     18       DOPC     O21      OSL     -0.490000       15.9994           0
      2199 MEMB     18       DOPC     C21      CL       0.900000       12.0110           0
      2200 MEMB     18       DOPC     O22      OBL     -0.630000       15.9994           0
      2201 MEMB     18       DOPC     C22      CTL2    -0.220000       12.0110           0
      2202 MEMB     18       DOPC     H2R      HAL2     0.900000E-01   1.00800           0
      2203 MEMB     18       DOPC     H2S      HAL2     0.900000E-01   1.00800           0
      2204 MEMB     18       DOPC     C3       CTL2     0.800000E-01   12.0110           0
      2205 MEMB     18       DOPC     HX       HAL2     0.900000E-01   1.00800           0
      2206 MEMB     18       DOPC     HY       HAL2     0.900000E-01   1.00800           0
      2207 MEMB     18       DOPC     O31      OSL     -0.490000       15.9994           0
      2208 MEMB     18       DOPC     C31      CL       0.900000       12.0110           0
      2209 MEMB     18       DOPC     O32      OBL     -0.630000       15.9994           0
      2210 MEMB     18       DOPC     C32      CTL2    -0.220000       12.0110           0
      2211 MEMB     18       DOPC     H2X      HAL2     0.900000E-01   1.00800           0
      2212 MEMB     18       DOPC     H2Y      HAL2     0.900000E-01   1.00800           0
      2213 MEMB     18       DOPC     C23      CTL2    -0.180000       12.0110           0
      2214 MEMB     18       DOPC     H3R      HAL2     0.900000E-01   1.00800           0
      2215 MEMB     18       DOPC     H3S      HAL2     0.900000E-01   1.00800           0
      2216 MEMB     18       DOPC     C24      CTL2    -0.180000       12.0110           0
      2217 MEMB     18       DOPC     H4R      HAL2     0.900000E-01   1.00800           0
      2218 MEMB     18       DOPC     H4S      HAL2     0.900000E-01   1.00800           0
      2219 MEMB     18       DOPC     C25      CTL2    -0.180000       12.0110           0
      2220 MEMB     18       DOPC     H5R      HAL2     0.900000E-01   1.00800           0
      2221 MEMB     18       DOPC     H5S      HAL2     0.900000E-01   1.00800           0
      2222 MEMB     18       DOPC     C26      CTL2    -0.180000       12.0110           0
      2223 MEMB     18       DOPC     H6R      HAL2     0.900000E-01   1.00800           0
      2224 MEMB     18       DOPC     H6S      HAL2     0.900000E-01   1.00800           0
      2225 MEMB     18       DOPC     C27      CTL2    -0.180000       12.0110           0
      2226 MEMB     18       DOPC     H7R      HAL2     0.900000E-01   1.00800           0
      2227 MEMB     18       DOPC     H7S      HAL2     0.900000E-01   1.00800           0
      2228 MEMB     18       DOPC     C28      CTL2    -0.180000       12.0110           0
      2229 MEMB     18       DOPC     H8R      HAL2     0.900000E-01   1.00800           0
      2230 MEMB     18       DOPC     H8S      HAL2     0.900000E-01   1.00800           0
      2231 MEMB     18       DOPC     C29      CEL1    -0.150000       12.0110           0
      2232 MEMB     18       DOPC     H9R      HEL1     0.150000       1.00800           0
      2233 MEMB     18       DOPC     C210     CEL1    -0.150000       12.0110           0
      2234 MEMB     18       DOPC     H10R     HEL1     0.150000       1.00800           0
      2235 MEMB     18       DOPC     C211     CTL2    -0.180000       12.0110           0
      2236 MEMB     18       DOPC     H11R     HAL2     0.900000E-01   1.00800           0
      2237 MEMB     18       DOPC     H11S     HAL2     0.900000E-01   1.00800           0
      2238 MEMB     18       DOPC     C212     CTL2    -0.180000       12.0110           0
      2239 MEMB     18       DOPC     H12R     HAL2     0.900000E-01   1.00800           0
      2240 MEMB     18       DOPC     H12S     HAL2     0.900000E-01   1.00800           0
      2241 MEMB     18       DOPC     C213     CTL2    -0.180000       12.0110           0
      2242 MEMB     18       DOPC     H13R     HAL2     0.900000E-01   1.00800           0
      2243 MEMB     18       DOPC     H13S     HAL2     0.900000E-01   1.00800           0
      2244 MEMB     18       DOPC     C214     CTL2    -0.180000       12.0110           0
      2245 MEMB     18       DOPC     H14R     HAL2     0.900000E-01   1.00800           0
      2246 MEMB     18       DOPC     H14S     HAL2     0.900000E-01   1.00800           0
      2247 MEMB     18       DOPC     C215     CTL2    -0.180000       12.0110           0
      2248 MEMB     18       DOPC     H15R     HAL2     0.900000E-01   1.00800           0
      2249 MEMB     18       DOPC     H15S     HAL2     0.900000E-01   1.00800           0
      2250 MEMB     18       DOPC     C216     CTL2    -0.180000       12.0110           0
      2251 MEMB     18       DOPC     H16R     HAL2     0.900000E-01   1.00800           0
      2252 MEMB     18       DOPC     H16S     HAL2     0.900000E-01   1.00800           0
      2253 MEMB     18       DOPC     C217     CTL2    -0.180000       12.0110           0
      2254 MEMB     18       DOPC     H17R     HAL2     0.900000E-01   1.00800           0
      2255 MEMB     18       DOPC     H17S     HAL2     0.900000E-01   1.00800           0
      2256 MEMB     18       DOPC     C218     CTL3    -0.270000       12.0110           0
      2257 MEMB     18       DOPC     H18R     HAL3     0.900000E-01   1.00800           0
      2258 MEMB     18       DOPC     H18S     HAL3     0.900000E-01   1.00800           0
      2259 MEMB     18       DOPC     H18T     HAL3     0.900000E-01   1.00800           0
      2260 MEMB     18       DOPC     C33      CTL2    -0.180000       12.0110           0
      2261 MEMB     18       DOPC     H3X      HAL2     0.900000E-01   1.00800           0
      2262 MEMB     18       DOPC     H3Y      HAL2     0.900000E-01   1.00800           0
      2263 MEMB     18       DOPC     C34      CTL2    -0.180000       12.0110           0
      2264 MEMB     18       DOPC     H4X      HAL2     0.900000E-01   1.00800           0
      2265 MEMB     18       DOPC     H4Y      HAL2     0.900000E-01   1.00800           0
      2266 MEMB     18       DOPC     C35      CTL2    -0.180000       12.0110           0
      2267 MEMB     18       DOPC     H5X      HAL2     0.900000E-01   1.00800           0
      2268 MEMB     18       DOPC     H5Y      HAL2     0.900000E-01   1.00800           0
      2269 MEMB     18       DOPC     C36      CTL2    -0.180000       12.0110           0
      2270 MEMB     18       DOPC     H6X      HAL2     0.900000E-01   1.00800           0
      2271 MEMB     18       DOPC     H6Y      HAL2     0.900000E-01   1.00800           0
      2272 MEMB     18       DOPC     C37      CTL2    -0.180000       12.0110           0
      2273 MEMB     18       DOPC     H7X      HAL2     0.900000E-01   1.00800           0
      2274 MEMB     18       DOPC     H7Y      HAL2     0.900000E-01   1.00800           0
      2275 MEMB     18       DOPC     C38      CTL2    -0.180000       12.0110           0
      2276 MEMB     18       DOPC     H8X      HAL2     0.900000E-01   1.00800           0
      2277 MEMB     18       DOPC     H8Y      HAL2     0.900000E-01   1.00800           0
      2278 MEMB     18       DOPC     C39      CEL1    -0.150000       12.0110           0
      2279 MEMB     18       DOPC     H9X      HEL1     0.150000       1.00800           0
      2280 MEMB     18       DOPC     C310     CEL1    -0.150000       12.0110           0
      2281 MEMB     18       DOPC     H10X     HEL1     0.150000       1.00800           0
      2282 MEMB     18       DOPC     C311     CTL2    -0.180000       12.0110           0
      2283 MEMB     18       DOPC     H11X     HAL2     0.900000E-01   1.00800           0
      2284 MEMB     18       DOPC     H11Y     HAL2     0.900000E-01   1.00800           0
      2285 MEMB     18       DOPC     C312     CTL2    -0.180000       12.0110           0
      2286 MEMB     18       DOPC     H12X     HAL2     0.900000E-01   1.00800           0
      2287 MEMB     18       DOPC     H12Y     HAL2     0.900000E-01   1.00800           0
      2288 MEMB     18       DOPC     C313     CTL2    -0.180000       12.0110           0
      2289 MEMB     18       DOPC     H13X     HAL2     0.900000E-01   1.00800           0
      2290 MEMB     18       DOPC     H13Y     HAL2     0.900000E-01   1.00800           0
      2291 MEMB     18       DOPC     C314     CTL2    -0.180000       12.0110           0
      2292 MEMB     18       DOPC     H14X     HAL2     0.900000E-01   1.00800           0
      2293 MEMB     18       DOPC     H14Y     HAL2     0.900000E-01   1.00800           0
      2294 MEMB     18       DOPC     C315     CTL2    -0.180000       12.0110           0
      2295 MEMB     18       DOPC     H15X     HAL2     0.900000E-01   1.00800           0
      2296 MEMB     18       DOPC     H15Y     HAL2     0.900000E-01   1.00800           0
      2297 MEMB     18       DOPC     C316     CTL2    -0.180000       12.0110           0
      2298 MEMB     18       DOPC     H16X     HAL2     0.900000E-01   1.00800           0
      2299 MEMB     18       DOPC     H16Y     HAL2     0.900000E-01   1.00800           0
      2300 MEMB     18       DOPC     C317     CTL2    -0.180000       12.0110           0
      2301 MEMB     18       DOPC     H17X     HAL2     0.900000E-01   1.00800           0
      2302 MEMB     18       DOPC     H17Y     HAL2     0.900000E-01   1.00800           0
      2303 MEMB     18       DOPC     C318     CTL3    -0.270000       12.0110           0
      2304 MEMB     18       DOPC     H18X     HAL3     0.900000E-01   1.00800           0
      2305 MEMB     18       DOPC     H18Y     HAL3     0.900000E-01   1.00800           0
      2306 MEMB     18       DOPC     H18Z     HAL3     0.900000E-01   1.00800           0
      2307 MEMB     19       23SM     N        NTL     -0.600000       14.0070           0
      2308 MEMB     19       23SM     C15      CTL5    -0.350000       12.0110           0
      2309 MEMB     19       23SM     H15A     HL       0.250000       1.00800           0
      2310 MEMB     19       23SM     H15B     HL       0.250000       1.00800           0
      2311 MEMB     19       23SM     H15C     HL       0.250000       1.00800           0
      2312 MEMB     19       23SM     C14      CTL5    -0.350000       12.0110           0
      2313 MEMB     19       23SM     H14A     HL       0.250000       1.00800           0
      2314 MEMB     19       23SM     H14B     HL       0.250000       1.00800           0
      2315 MEMB     19       23SM     H14C     HL       0.250000       1.00800           0
      2316 MEMB     19       23SM     C13      CTL5    -0.350000       12.0110           0
      2317 MEMB     19       23SM     H13A     HL       0.250000       1.00800           0
      2318 MEMB     19       23SM     H13B     HL       0.250000       1.00800           0
      2319 MEMB     19       23SM     H13C     HL       0.250000       1.00800           0
      2320 MEMB     19       23SM     C12      CTL2    -0.100000       12.0110           0
      2321 MEMB     19       23SM     H12A     HL       0.250000       1.00800           0
      2322 MEMB     19       23SM     H12B     HL       0.250000       1.00800           0
      2323 MEMB     19       23SM     C11      CTL2    -0.800000E-01   12.0110           0
      2324 MEMB     19       23SM     H11A     HAL2     0.900000E-01   1.00800           0
      2325 MEMB     19       23SM     H11B     HAL2     0.900000E-01   1.00800           0
      2326 MEMB     19       23SM     P        PL        1.50000       30.9740           0
      2327 MEMB     19       23SM     O13      O2L     -0.780000       15.9994           0
      2328 MEMB     19       23SM     O14      O2L     -0.780000       15.9994           0
      2329 MEMB     19       23SM     O11      OSLP    -0.570000       15.9994           0
      2330 MEMB     19       23SM     O12      OSLP    -0.570000       15.9994           0
      2331 MEMB     19       23SM     C1S      CTL2    -0.800000E-01   12.0110           0
      2332 MEMB     19       23SM     H1S      HAL2     0.900000E-01   1.00800           0
      2333 MEMB     19       23SM     H1T      HAL2     0.900000E-01   1.00800           0
      2334 MEMB     19       23SM     NF       NHL     -0.700000       14.0070           0
      2335 MEMB     19       23SM     HNF      H        0.350000       1.00800           0
      2336 MEMB     19       23SM     C2S      CTL1     0.300000       12.0110           0
      2337 MEMB     19       23SM     H2S      HAL1     0.500000E-01   1.00800           0
      2338 MEMB     19       23SM     C3S      CTO1     0.500000       12.0110           0
      2339 MEMB     19       23SM     H3S      HAL1    -0.110000       1.00800           0
      2340 MEMB     19       23SM     O3       OHL     -0.690000       15.9994           0
      2341 MEMB     19       23SM     HO3      HOL      0.300000       1.00800           0
      2342 MEMB     19       23SM     C4S      CEL3    -0.150000       12.0110           0
      2343 MEMB     19       23SM     H4S      HEL1     0.150000       1.00800           0
      2344 MEMB     19       23SM     C5S      CEL3    -0.150000       12.0110           0
      2345 MEMB     19       23SM     H5S      HEL1     0.150000       1.00800           0
      2346 MEMB     19       23SM     C6S      CTL2    -0.180000       12.0110           0
      2347 MEMB     19       23SM     H6S      HAL2     0.900000E-01   1.00800           0
      2348 MEMB     19       23SM     H6T      HAL2     0.900000E-01   1.00800           0
      2349 MEMB     19       23SM     C7S      CTL2    -0.180000       12.0110           0
      2350 MEMB     19       23SM     H7S      HAL2     0.900000E-01   1.00800           0
      2351 MEMB     19       23SM     H7T      HAL2     0.900000E-01   1.00800           0
      2352 MEMB     19       23SM     C8S      CTL2    -0.180000       12.0110           0
      2353 MEMB     19       23SM     H8S      HAL2     0.900000E-01   1.00800           0
      2354 MEMB     19       23SM     H8T      HAL2     0.900000E-01   1.00800           0
      2355 MEMB     19       23SM     C9S      CTL2    -0.180000       12.0110           0
      2356 MEMB     19       23SM     H9S      HAL2     0.900000E-01   1.00800           0
      2357 MEMB     19       23SM     H9T      HAL2     0.900000E-01   1.00800           0
      2358 MEMB     19       23SM     C10S     CTL2    -0.180000       12.0110           0
      2359 MEMB     19       23SM     H10S     HAL2     0.900000E-01   1.00800           0
      2360 MEMB     19       23SM     H10T     HAL2     0.900000E-01   1.00800           0
      2361 MEMB     19       23SM     C11S     CTL2    -0.180000       12.0110           0
      2362 MEMB     19       23SM     H11S     HAL2     0.900000E-01   1.00800           0
      2363 MEMB     19       23SM     H11T     HAL2     0.900000E-01   1.00800           0
      2364 MEMB     19       23SM     C12S     CTL2    -0.180000       12.0110           0
      2365 MEMB     19       23SM     H12S     HAL2     0.900000E-01   1.00800           0
      2366 MEMB     19       23SM     H12T     HAL2     0.900000E-01   1.00800           0
      2367 MEMB     19       23SM     C13S     CTL2    -0.180000       12.0110           0
      2368 MEMB     19       23SM     H13S     HAL2     0.900000E-01   1.00800           0
      2369 MEMB     19       23SM     H13T     HAL2     0.900000E-01   1.00800           0
      2370 MEMB     19       23SM     C14S     CTL2    -0.180000       12.0110           0
      2371 MEMB     19       23SM     H14S     HAL2     0.900000E-01   1.00800           0
      2372 MEMB     19       23SM     H14T     HAL2     0.900000E-01   1.00800           0
      2373 MEMB     19       23SM     C15S     CTL2    -0.180000       12.0110           0
      2374 MEMB     19       23SM     H15S     HAL2     0.900000E-01   1.00800           0
      2375 MEMB     19       23SM     H15T     HAL2     0.900000E-01   1.00800           0
      2376 MEMB     19       23SM     C16S     CTL2    -0.180000       12.0110           0
      2377 MEMB     19       23SM     H16S     HAL2     0.900000E-01   1.00800           0
      2378 MEMB     19       23SM     H16T     HAL2     0.900000E-01   1.00800           0
      2379 MEMB     19       23SM     C17S     CTL2    -0.180000       12.0110           0
      2380 MEMB     19       23SM     H17S     HAL2     0.900000E-01   1.00800           0
      2381 MEMB     19       23SM     H17T     HAL2     0.900000E-01   1.00800           0
      2382 MEMB     19       23SM     C18S     CTL3    -0.270000       12.0110           0
      2383 MEMB     19       23SM     H18S     HAL3     0.900000E-01   1.00800           0
      2384 MEMB     19       23SM     H18T     HAL3     0.900000E-01   1.00800           0
      2385 MEMB     19       23SM     H18U     HAL3     0.900000E-01   1.00800           0
      2386 MEMB     19       23SM     C1F      C        0.550000       12.0110           0
      2387 MEMB     19       23SM     OF       O       -0.600000       15.9994           0
      2388 MEMB     19       23SM     C2F      CTL2    -0.700000E-01   12.0110           0
      2389 MEMB     19       23SM     H2F      HAL2     0.600000E-01   1.00800           0
      2390 MEMB     19       23SM     H2G      HAL2     0.600000E-01   1.00800           0
      2391 MEMB     19       23SM     C3F      CTL2    -0.180000       12.0110           0
      2392 MEMB     19       23SM     H3F      HAL2     0.900000E-01   1.00800           0
      2393 MEMB     19       23SM     H3G      HAL2     0.900000E-01   1.00800           0
      2394 MEMB     19       23SM     C4F      CTL2    -0.180000       12.0110           0
      2395 MEMB     19       23SM     H4F      HAL2     0.900000E-01   1.00800           0
      2396 MEMB     19       23SM     H4G      HAL2     0.900000E-01   1.00800           0
      2397 MEMB     19       23SM     C5F      CTL2    -0.180000       12.0110           0
      2398 MEMB     19       23SM     H5F      HAL2     0.900000E-01   1.00800           0
      2399 MEMB     19       23SM     H5G      HAL2     0.900000E-01   1.00800           0
      2400 MEMB     19       23SM     C6F      CTL2    -0.180000       12.0110           0
      2401 MEMB     19       23SM     H6F      HAL2     0.900000E-01   1.00800           0
      2402 MEMB     19       23SM     H6G      HAL2     0.900000E-01   1.00800           0
      2403 MEMB     19       23SM     C7F      CTL2    -0.180000       12.0110           0
      2404 MEMB     19       23SM     H7F      HAL2     0.900000E-01   1.00800           0
      2405 MEMB     19       23SM     H7G      HAL2     0.900000E-01   1.00800           0
      2406 MEMB     19       23SM     C8F      CTL2    -0.180000       12.0110           0
      2407 MEMB     19       23SM     H8F      HAL2     0.900000E-01   1.00800           0
      2408 MEMB     19       23SM     H8G      HAL2     0.900000E-01   1.00800           0
      2409 MEMB     19       23SM     C9F      CTL2    -0.180000       12.0110           0
      2410 MEMB     19       23SM     H9F      HAL2     0.900000E-01   1.00800           0
      2411 MEMB     19       23SM     H9G      HAL2     0.900000E-01   1.00800           0
      2412 MEMB     19       23SM     C10F     CTL2    -0.180000       12.0110           0
      2413 MEMB     19       23SM     H10F     HAL2     0.900000E-01   1.00800           0
      2414 MEMB     19       23SM     H10G     HAL2     0.900000E-01   1.00800           0
      2415 MEMB     19       23SM     C11F     CTL2    -0.180000       12.0110           0
      2416 MEMB     19       23SM     H11F     HAL2     0.900000E-01   1.00800           0
      2417 MEMB     19       23SM     H11G     HAL2     0.900000E-01   1.00800           0
      2418 MEMB     19       23SM     C12F     CTL2    -0.180000       12.0110           0
      2419 MEMB     19       23SM     H12F     HAL2     0.900000E-01   1.00800           0
      2420 MEMB     19       23SM     H12G     HAL2     0.900000E-01   1.00800           0
      2421 MEMB     19       23SM     C13F     CTL2    -0.180000       12.0110           0
      2422 MEMB     19       23SM     H13F     HAL2     0.900000E-01   1.00800           0
      2423 MEMB     19       23SM     H13G     HAL2     0.900000E-01   1.00800           0
      2424 MEMB     19       23SM     C14F     CTL2    -0.180000       12.0110           0
      2425 MEMB     19       23SM     H14F     HAL2     0.900000E-01   1.00800           0
      2426 MEMB     19       23SM     H14G     HAL2     0.900000E-01   1.00800           0
      2427 MEMB     19       23SM     C15F     CTL2    -0.180000       12.0110           0
      2428 MEMB     19       23SM     H15F     HAL2     0.900000E-01   1.00800           0
      2429 MEMB     19       23SM     H15G     HAL2     0.900000E-01   1.00800           0
      2430 MEMB     19       23SM     C16F     CTL2    -0.180000       12.0110           0
      2431 MEMB     19       23SM     H16F     HAL2     0.900000E-01   1.00800           0
      2432 MEMB     19       23SM     H16G     HAL2     0.900000E-01   1.00800           0
      2433 MEMB     19       23SM     C17F     CTL2    -0.180000       12.0110           0
      2434 MEMB     19       23SM     H17F     HAL2     0.900000E-01   1.00800           0
      2435 MEMB     19       23SM     H17G     HAL2     0.900000E-01   1.00800           0
      2436 MEMB     19       23SM     C18F     CTL2    -0.180000       12.0110           0
      2437 MEMB     19       23SM     H18F     HAL2     0.900000E-01   1.00800           0
      2438 MEMB     19       23SM     H18G     HAL2     0.900000E-01   1.00800           0
      2439 MEMB     19       23SM     C19F     CTL2    -0.180000       12.0110           0
      2440 MEMB     19       23SM     H19F     HAL2     0.900000E-01   1.00800           0
      2441 MEMB     19       23SM     H19G     HAL2     0.900000E-01   1.00800           0
      2442 MEMB     19       23SM     C20F     CTL2    -0.180000       12.0110           0
      2443 MEMB     19       23SM     H20F     HAL2     0.900000E-01   1.00800           0
      2444 MEMB     19       23SM     H20G     HAL2     0.900000E-01   1.00800           0
      2445 MEMB     19       23SM     C21F     CTL2    -0.180000       12.0110           0
      2446 MEMB     19       23SM     H21F     HAL2     0.900000E-01   1.00800           0
      2447 MEMB     19       23SM     H21G     HAL2     0.900000E-01   1.00800           0
      2448 MEMB     19       23SM     C22F     CTL2    -0.180000       12.0110           0
      2449 MEMB     19       23SM     H22F     HAL2     0.900000E-01   1.00800           0
      2450 MEMB     19       23SM     H22G     HAL2     0.900000E-01   1.00800           0
      2451 MEMB     19       23SM     C23F     CTL3    -0.270000       12.0110           0
      2452 MEMB     19       23SM     H23F     HAL3     0.900000E-01   1.00800           0
      2453 MEMB     19       23SM     H23G     HAL3     0.900000E-01   1.00800           0
      2454 MEMB     19       23SM     H23H     HAL3     0.900000E-01   1.00800           0
      2455 MEMB     20       DOPE     N        NH3L    -0.300000       14.0070           0
      2456 MEMB     20       DOPE     HN1      HCL      0.330000       1.00800           0
      2457 MEMB     20       DOPE     HN2      HCL      0.330000       1.00800           0
      2458 MEMB     20       DOPE     HN3      HCL      0.330000       1.00800           0
      2459 MEMB     20       DOPE     C12      CTL2     0.130000       12.0110           0
      2460 MEMB     20       DOPE     H12A     HAL2     0.900000E-01   1.00800           0
      2461 MEMB     20       DOPE     H12B     HAL2     0.900000E-01   1.00800           0
      2462 MEMB     20       DOPE     C11      CTL2    -0.800000E-01   12.0110           0
      2463 MEMB     20       DOPE     H11A     HAL2     0.900000E-01   1.00800           0
      2464 MEMB     20       DOPE     H11B     HAL2     0.900000E-01   1.00800           0
      2465 MEMB     20       DOPE     P        PL        1.50000       30.9740           0
      2466 MEMB     20       DOPE     O13      O2L     -0.780000       15.9994           0
      2467 MEMB     20       DOPE     O14      O2L     -0.780000       15.9994           0
      2468 MEMB     20       DOPE     O11      OSLP    -0.570000       15.9994           0
      2469 MEMB     20       DOPE     O12      OSLP    -0.570000       15.9994           0
      2470 MEMB     20       DOPE     C1       CTL2    -0.800000E-01   12.0110           0
      2471 MEMB     20       DOPE     HA       HAL2     0.900000E-01   1.00800           0
      2472 MEMB     20       DOPE     HB       HAL2     0.900000E-01   1.00800           0
      2473 MEMB     20       DOPE     C2       CTL1     0.170000       12.0110           0
      2474 MEMB     20       DOPE     HS       HAL1     0.900000E-01   1.00800           0
      2475 MEMB     20       DOPE     O21      OSL     -0.490000       15.9994           0
      2476 MEMB     20       DOPE     C21      CL       0.900000       12.0110           0
      2477 MEMB     20       DOPE     O22      OBL     -0.630000       15.9994           0
      2478 MEMB     20       DOPE     C22      CTL2    -0.220000       12.0110           0
      2479 MEMB     20       DOPE     H2R      HAL2     0.900000E-01   1.00800           0
      2480 MEMB     20       DOPE     H2S      HAL2     0.900000E-01   1.00800           0
      2481 MEMB     20       DOPE     C3       CTL2     0.800000E-01   12.0110           0
      2482 MEMB     20       DOPE     HX       HAL2     0.900000E-01   1.00800           0
      2483 MEMB     20       DOPE     HY       HAL2     0.900000E-01   1.00800           0
      2484 MEMB     20       DOPE     O31      OSL     -0.490000       15.9994           0
      2485 MEMB     20       DOPE     C31      CL       0.900000       12.0110           0
      2486 MEMB     20       DOPE     O32      OBL     -0.630000       15.9994           0
      2487 MEMB     20       DOPE     C32      CTL2    -0.220000       12.0110           0
      2488 MEMB     20       DOPE     H2X      HAL2     0.900000E-01   1.00800           0
      2489 MEMB     20       DOPE     H2Y      HAL2     0.900000E-01   1.00800           0
      2490 MEMB     20       DOPE     C23      CTL2    -0.180000       12.0110           0
      2491 MEMB     20       DOPE     H3R      HAL2     0.900000E-01   1.00800           0
      2492 MEMB     20       DOPE     H3S      HAL2     0.900000E-01   1.00800           0
      2493 MEMB     20       DOPE     C24      CTL2    -0.180000       12.0110           0
      2494 MEMB     20       DOPE     H4R      HAL2     0.900000E-01   1.00800           0
      2495 MEMB     20       DOPE     H4S      HAL2     0.900000E-01   1.00800           0
      2496 MEMB     20       DOPE     C25      CTL2    -0.180000       12.0110           0
      2497 MEMB     20       DOPE     H5R      HAL2     0.900000E-01   1.00800           0
      2498 MEMB     20       DOPE     H5S      HAL2     0.900000E-01   1.00800           0
      2499 MEMB     20       DOPE     C26      CTL2    -0.180000       12.0110           0
      2500 MEMB     20       DOPE     H6R      HAL2     0.900000E-01   1.00800           0
      2501 MEMB     20       DOPE     H6S      HAL2     0.900000E-01   1.00800           0
      2502 MEMB     20       DOPE     C27      CTL2    -0.180000       12.0110           0
      2503 MEMB     20       DOPE     H7R      HAL2     0.900000E-01   1.00800           0
      2504 MEMB     20       DOPE     H7S      HAL2     0.900000E-01   1.00800           0
      2505 MEMB     20       DOPE     C28      CTL2    -0.180000       12.0110           0
      2506 MEMB     20       DOPE     H8R      HAL2     0.900000E-01   1.00800           0
      2507 MEMB     20       DOPE     H8S      HAL2     0.900000E-01   1.00800           0
      2508 MEMB     20       DOPE     C29      CEL1    -0.150000       12.0110           0
      2509 MEMB     20       DOPE     H9R      HEL1     0.150000       1.00800           0
      2510 MEMB     20       DOPE     C210     CEL1    -0.150000       12.0110           0
      2511 MEMB     20       DOPE     H10R     HEL1     0.150000       1.00800           0
      2512 MEMB     20       DOPE     C211     CTL2    -0.180000       12.0110           0
      2513 MEMB     20       DOPE     H11R     HAL2     0.900000E-01   1.00800           0
      2514 MEMB     20       DOPE     H11S     HAL2     0.900000E-01   1.00800           0
      2515 MEMB     20       DOPE     C212     CTL2    -0.180000       12.0110           0
      2516 MEMB     20       DOPE     H12R     HAL2     0.900000E-01   1.00800           0
      2517 MEMB     20       DOPE     H12S     HAL2     0.900000E-01   1.00800           0
      2518 MEMB     20       DOPE     C213     CTL2    -0.180000       12.0110           0
      2519 MEMB     20       DOPE     H13R     HAL2     0.900000E-01   1.00800           0
      2520 MEMB     20       DOPE     H13S     HAL2     0.900000E-01   1.00800           0
      2521 MEMB     20       DOPE     C214     CTL2    -0.180000       12.0110           0
      2522 MEMB     20       DOPE     H14R     HAL2     0.900000E-01   1.00800           0
      2523 MEMB     20       DOPE     H14S     HAL2     0.900000E-01   1.00800           0
      2524 MEMB     20       DOPE     C215     CTL2    -0.180000       12.0110           0
      2525 MEMB     20       DOPE     H15R     HAL2     0.900000E-01   1.00800           0
      2526 MEMB     20       DOPE     H15S     HAL2     0.900000E-01   1.00800           0
      2527 MEMB     20       DOPE     C216     CTL2    -0.180000       12.0110           0
      2528 MEMB     20       DOPE     H16R     HAL2     0.900000E-01   1.00800           0
      2529 MEMB     20       DOPE     H16S     HAL2     0.900000E-01   1.00800           0
      2530 MEMB     20       DOPE     C217     CTL2    -0.180000       12.0110           0
      2531 MEMB     20       DOPE     H17R     HAL2     0.900000E-01   1.00800           0
      2532 MEMB     20       DOPE     H17S     HAL2     0.900000E-01   1.00800           0
      2533 MEMB     20       DOPE     C218     CTL3    -0.270000       12.0110           0
      2534 MEMB     20       DOPE     H18R     HAL3     0.900000E-01   1.00800           0
      2535 MEMB     20       DOPE     H18S     HAL3     0.900000E-01   1.00800           0
      2536 MEMB     20       DOPE     H18T     HAL3     0.900000E-01   1.00800           0
      2537 MEMB     20       DOPE     C33      CTL2    -0.180000       12.0110           0
      2538 MEMB     20       DOPE     H3X      HAL2     0.900000E-01   1.00800           0
      2539 MEMB     20       DOPE     H3Y      HAL2     0.900000E-01   1.00800           0
      2540 MEMB     20       DOPE     C34      CTL2    -0.180000       12.0110           0
      2541 MEMB     20       DOPE     H4X      HAL2     0.900000E-01   1.00800           0
      2542 MEMB     20       DOPE     H4Y      HAL2     0.900000E-01   1.00800           0
      2543 MEMB     20       DOPE     C35      CTL2    -0.180000       12.0110           0
      2544 MEMB     20       DOPE     H5X      HAL2     0.900000E-01   1.00800           0
      2545 MEMB     20       DOPE     H5Y      HAL2     0.900000E-01   1.00800           0
      2546 MEMB     20       DOPE     C36      CTL2    -0.180000       12.0110           0
      2547 MEMB     20       DOPE     H6X      HAL2     0.900000E-01   1.00800           0
      2548 MEMB     20       DOPE     H6Y      HAL2     0.900000E-01   1.00800           0
      2549 MEMB     20       DOPE     C37      CTL2    -0.180000       12.0110           0
      2550 MEMB     20       DOPE     H7X      HAL2     0.900000E-01   1.00800           0
      2551 MEMB     20       DOPE     H7Y      HAL2     0.900000E-01   1.00800           0
      2552 MEMB     20       DOPE     C38      CTL2    -0.180000       12.0110           0
      2553 MEMB     20       DOPE     H8X      HAL2     0.900000E-01   1.00800           0
      2554 MEMB     20       DOPE     H8Y      HAL2     0.900000E-01   1.00800           0
      2555 MEMB     20       DOPE     C39      CEL1    -0.150000       12.0110           0
      2556 MEMB     20       DOPE     H9X      HEL1     0.150000       1.00800           0
      2557 MEMB     20       DOPE     C310     CEL1    -0.150000       12.0110           0
      2558 MEMB     20       DOPE     H10X     HEL1     0.150000       1.00800           0
      2559 MEMB     20       DOPE     C311     CTL2    -0.180000       12.0110           0
      2560 MEMB     20       DOPE     H11X     HAL2     0.900000E-01   1.00800           0
      2561 MEMB     20       DOPE     H11Y     HAL2     0.900000E-01   1.00800           0
      2562 MEMB     20       DOPE     C312     CTL2    -0.180000       12.0110           0
      2563 MEMB     20       DOPE     H12X     HAL2     0.900000E-01   1.00800           0
      2564 MEMB     20       DOPE     H12Y     HAL2     0.900000E-01   1.00800           0
      2565 MEMB     20       DOPE     C313     CTL2    -0.180000       12.0110           0
      2566 MEMB     20       DOPE     H13X     HAL2     0.900000E-01   1.00800           0
      2567 MEMB     20       DOPE     H13Y     HAL2     0.900000E-01   1.00800           0
      2568 MEMB     20       DOPE     C314     CTL2    -0.180000       12.0110           0
      2569 MEMB     20       DOPE     H14X     HAL2     0.900000E-01   1.00800           0
      2570 MEMB     20       DOPE     H14Y     HAL2     0.900000E-01   1.00800           0
      2571 MEMB     20       DOPE     C315     CTL2    -0.180000       12.0110           0
      2572 MEMB     20       DOPE     H15X     HAL2     0.900000E-01   1.00800           0
      2573 MEMB     20       DOPE     H15Y     HAL2     0.900000E-01   1.00800           0
      2574 MEMB     20       DOPE     C316     CTL2    -0.180000       12.0110           0
      2575 MEMB     20       DOPE     H16X     HAL2     0.900000E-01   1.00800           0
      2576 MEMB     20       DOPE     H16Y     HAL2     0.900000E-01   1.00800           0
      2577 MEMB     20       DOPE     C317     CTL2    -0.180000       12.0110           0
      2578 MEMB     20       DOPE     H17X     HAL2     0.900000E-01   1.00800           0
      2579 MEMB     20       DOPE     H17Y     HAL2     0.900000E-01   1.00800           0
      2580 MEMB     20       DOPE     C318     CTL3    -0.270000       12.0110           0
      2581 MEMB     20       DOPE     H18X     HAL3     0.900000E-01   1.00800           0
      2582 MEMB     20       DOPE     H18Y     HAL3     0.900000E-01   1.00800           0
      2583 MEMB     20       DOPE     H18Z     HAL3     0.900000E-01   1.00800           0
      2584 MEMB     21       DOPC     N        NTL     -0.600000       14.0070           0
      2585 MEMB     21       DOPC     C12      CTL2    -0.100000       12.0110           0
      2586 MEMB     21       DOPC     H12A     HL       0.250000       1.00800           0
      2587 MEMB     21       DOPC     H12B     HL       0.250000       1.00800           0
      2588 MEMB     21       DOPC     C13      CTL5    -0.350000       12.0110           0
      2589 MEMB     21       DOPC     H13A     HL       0.250000       1.00800           0
      2590 MEMB     21       DOPC     H13B     HL       0.250000       1.00800           0
      2591 MEMB     21       DOPC     H13C     HL       0.250000       1.00800           0
      2592 MEMB     21       DOPC     C14      CTL5    -0.350000       12.0110           0
      2593 MEMB     21       DOPC     H14A     HL       0.250000       1.00800           0
      2594 MEMB     21       DOPC     H14B     HL       0.250000       1.00800           0
      2595 MEMB     21       DOPC     H14C     HL       0.250000       1.00800           0
      2596 MEMB     21       DOPC     C15      CTL5    -0.350000       12.0110           0
      2597 MEMB     21       DOPC     H15A     HL       0.250000       1.00800           0
      2598 MEMB     21       DOPC     H15B     HL       0.250000       1.00800           0
      2599 MEMB     21       DOPC     H15C     HL       0.250000       1.00800           0
      2600 MEMB     21       DOPC     C11      CTL2    -0.800000E-01   12.0110           0
      2601 MEMB     21       DOPC     H11A     HAL2     0.900000E-01   1.00800           0
      2602 MEMB     21       DOPC     H11B     HAL2     0.900000E-01   1.00800           0
      2603 MEMB     21       DOPC     P        PL        1.50000       30.9740           0
      2604 MEMB     21       DOPC     O13      O2L     -0.780000       15.9994           0
      2605 MEMB     21       DOPC     O14      O2L     -0.780000       15.9994           0
      2606 MEMB     21       DOPC     O12      OSLP    -0.570000       15.9994           0
      2607 MEMB     21       DOPC     O11      OSLP    -0.570000       15.9994           0
      2608 MEMB     21       DOPC     C1       CTL2    -0.800000E-01   12.0110           0
      2609 MEMB     21       DOPC     HA       HAL2     0.900000E-01   1.00800           0
      2610 MEMB     21       DOPC     HB       HAL2     0.900000E-01   1.00800           0
      2611 MEMB     21       DOPC     C2       CTL1     0.170000       12.0110           0
      2612 MEMB     21       DOPC     HS       HAL1     0.900000E-01   1.00800           0
      2613 MEMB     21       DOPC     O21      OSL     -0.490000       15.9994           0
      2614 MEMB     21       DOPC     C21      CL       0.900000       12.0110           0
      2615 MEMB     21       DOPC     O22      OBL     -0.630000       15.9994           0
      2616 MEMB     21       DOPC     C22      CTL2    -0.220000       12.0110           0
      2617 MEMB     21       DOPC     H2R      HAL2     0.900000E-01   1.00800           0
      2618 MEMB     21       DOPC     H2S      HAL2     0.900000E-01   1.00800           0
      2619 MEMB     21       DOPC     C3       CTL2     0.800000E-01   12.0110           0
      2620 MEMB     21       DOPC     HX       HAL2     0.900000E-01   1.00800           0
      2621 MEMB     21       DOPC     HY       HAL2     0.900000E-01   1.00800           0
      2622 MEMB     21       DOPC     O31      OSL     -0.490000       15.9994           0
      2623 MEMB     21       DOPC     C31      CL       0.900000       12.0110           0
      2624 MEMB     21       DOPC     O32      OBL     -0.630000       15.9994           0
      2625 MEMB     21       DOPC     C32      CTL2    -0.220000       12.0110           0
      2626 MEMB     21       DOPC     H2X      HAL2     0.900000E-01   1.00800           0
      2627 MEMB     21       DOPC     H2Y      HAL2     0.900000E-01   1.00800           0
      2628 MEMB     21       DOPC     C23      CTL2    -0.180000       12.0110           0
      2629 MEMB     21       DOPC     H3R      HAL2     0.900000E-01   1.00800           0
      2630 MEMB     21       DOPC     H3S      HAL2     0.900000E-01   1.00800           0
      2631 MEMB     21       DOPC     C24      CTL2    -0.180000       12.0110           0
      2632 MEMB     21       DOPC     H4R      HAL2     0.900000E-01   1.00800           0
      2633 MEMB     21       DOPC     H4S      HAL2     0.900000E-01   1.00800           0
      2634 MEMB     21       DOPC     C25      CTL2    -0.180000       12.0110           0
      2635 MEMB     21       DOPC     H5R      HAL2     0.900000E-01   1.00800           0
      2636 MEMB     21       DOPC     H5S      HAL2     0.900000E-01   1.00800           0
      2637 MEMB     21       DOPC     C26      CTL2    -0.180000       12.0110           0
      2638 MEMB     21       DOPC     H6R      HAL2     0.900000E-01   1.00800           0
      2639 MEMB     21       DOPC     H6S      HAL2     0.900000E-01   1.00800           0
      2640 MEMB     21       DOPC     C27      CTL2    -0.180000       12.0110           0
      2641 MEMB     21       DOPC     H7R      HAL2     0.900000E-01   1.00800           0
      2642 MEMB     21       DOPC     H7S      HAL2     0.900000E-01   1.00800           0
      2643 MEMB     21       DOPC     C28      CTL2    -0.180000       12.0110           0
      2644 MEMB     21       DOPC     H8R      HAL2     0.900000E-01   1.00800           0
      2645 MEMB     21       DOPC     H8S      HAL2     0.900000E-01   1.00800           0
      2646 MEMB     21       DOPC     C29      CEL1    -0.150000       12.0110           0
      2647 MEMB     21       DOPC     H9R      HEL1     0.150000       1.00800           0
      2648 MEMB     21       DOPC     C210     CEL1    -0.150000       12.0110           0
      2649 MEMB     21       DOPC     H10R     HEL1     0.150000       1.00800           0
      2650 MEMB     21       DOPC     C211     CTL2    -0.180000       12.0110           0
      2651 MEMB     21       DOPC     H11R     HAL2     0.900000E-01   1.00800           0
      2652 MEMB     21       DOPC     H11S     HAL2     0.900000E-01   1.00800           0
      2653 MEMB     21       DOPC     C212     CTL2    -0.180000       12.0110           0
      2654 MEMB     21       DOPC     H12R     HAL2     0.900000E-01   1.00800           0
      2655 MEMB     21       DOPC     H12S     HAL2     0.900000E-01   1.00800           0
      2656 MEMB     21       DOPC     C213     CTL2    -0.180000       12.0110           0
      2657 MEMB     21       DOPC     H13R     HAL2     0.900000E-01   1.00800           0
      2658 MEMB     21       DOPC     H13S     HAL2     0.900000E-01   1.00800           0
      2659 MEMB     21       DOPC     C214     CTL2    -0.180000       12.0110           0
      2660 MEMB     21       DOPC     H14R     HAL2     0.900000E-01   1.00800           0
      2661 MEMB     21       DOPC     H14S     HAL2     0.900000E-01   1.00800           0
      2662 MEMB     21       DOPC     C215     CTL2    -0.180000       12.0110           0
      2663 MEMB     21       DOPC     H15R     HAL2     0.900000E-01   1.00800           0
      2664 MEMB     21       DOPC     H15S     HAL2     0.900000E-01   1.00800           0
      2665 MEMB     21       DOPC     C216     CTL2    -0.180000       12.0110           0
      2666 MEMB     21       DOPC     H16R     HAL2     0.900000E-01   1.00800           0
      2667 MEMB     21       DOPC     H16S     HAL2     0.900000E-01   1.00800           0
      2668 MEMB     21       DOPC     C217     CTL2    -0.180000       12.0110           0
      2669 MEMB     21       DOPC     H17R     HAL2     0.900000E-01   1.00800           0
      2670 MEMB     21       DOPC     H17S     HAL2     0.900000E-01   1.00800           0
      2671 MEMB     21       DOPC     C218     CTL3    -0.270000       12.0110           0
      2672 MEMB     21       DOPC     H18R     HAL3     0.900000E-01   1.00800           0
      2673 MEMB     21       DOPC     H18S     HAL3     0.900000E-01   1.00800           0
      2674 MEMB     21       DOPC     H18T     HAL3     0.900000E-01   1.00800           0
      2675 MEMB     21       DOPC     C33      CTL2    -0.180000       12.0110           0
      2676 MEMB     21       DOPC     H3X      HAL2     0.900000E-01   1.00800           0
      2677 MEMB     21       DOPC     H3Y      HAL2     0.900000E-01   1.00800           0
      2678 MEMB     21       DOPC     C34      CTL2    -0.180000       12.0110           0
      2679 MEMB     21       DOPC     H4X      HAL2     0.900000E-01   1.00800           0
      2680 MEMB     21       DOPC     H4Y      HAL2     0.900000E-01   1.00800           0
      2681 MEMB     21       DOPC     C35      CTL2    -0.180000       12.0110           0
      2682 MEMB     21       DOPC     H5X      HAL2     0.900000E-01   1.00800           0
      2683 MEMB     21       DOPC     H5Y      HAL2     0.900000E-01   1.00800           0
      2684 MEMB     21       DOPC     C36      CTL2    -0.180000       12.0110           0
      2685 MEMB     21       DOPC     H6X      HAL2     0.900000E-01   1.00800           0
      2686 MEMB     21       DOPC     H6Y      HAL2     0.900000E-01   1.00800           0
      2687 MEMB     21       DOPC     C37      CTL2    -0.180000       12.0110           0
      2688 MEMB     21       DOPC     H7X      HAL2     0.900000E-01   1.00800           0
      2689 MEMB     21       DOPC     H7Y      HAL2     0.900000E-01   1.00800           0
      2690 MEMB     21       DOPC     C38      CTL2    -0.180000       12.0110           0
      2691 MEMB     21       DOPC     H8X      HAL2     0.900000E-01   1.00800           0
      2692 MEMB     21       DOPC     H8Y      HAL2     0.900000E-01   1.00800           0
      2693 MEMB     21       DOPC     C39      CEL1    -0.150000       12.0110           0
      2694 MEMB     21       DOPC     H9X      HEL1     0.150000       1.00800           0
      2695 MEMB     21       DOPC     C310     CEL1    -0.150000       12.0110           0
      2696 MEMB     21       DOPC     H10X     HEL1     0.150000       1.00800           0
      2697 MEMB     21       DOPC     C311     CTL2    -0.180000       12.0110           0
      2698 MEMB     21       DOPC     H11X     HAL2     0.900000E-01   1.00800           0
      2699 MEMB     21       DOPC     H11Y     HAL2     0.900000E-01   1.00800           0
      2700 MEMB     21       DOPC     C312     CTL2    -0.180000       12.0110           0
      2701 MEMB     21       DOPC     H12X     HAL2     0.900000E-01   1.00800           0
      2702 MEMB     21       DOPC     H12Y     HAL2     0.900000E-01   1.00800           0
      2703 MEMB     21       DOPC     C313     CTL2    -0.180000       12.0110           0
      2704 MEMB     21       DOPC     H13X     HAL2     0.900000E-01   1.00800           0
      2705 MEMB     21       DOPC     H13Y     HAL2     0.900000E-01   1.00800           0
      2706 MEMB     21       DOPC     C314     CTL2    -0.180000       12.0110           0
      2707 MEMB     21       DOPC     H14X     HAL2     0.900000E-01   1.00800           0
      2708 MEMB     21       DOPC     H14Y     HAL2     0.900000E-01   1.00800           0
      2709 MEMB     21       DOPC     C315     CTL2    -0.180000       12.0110           0
      2710 MEMB     21       DOPC     H15X     HAL2     0.900000E-01   1.00800           0
      2711 MEMB     21       DOPC     H15Y     HAL2     0.900000E-01   1.00800           0
      2712 MEMB     21       DOPC     C316     CTL2    -0.180000       12.0110           0
      2713 MEMB     21       DOPC     H16X     HAL2     0.900000E-01   1.00800           0
      2714 MEMB     21       DOPC     H16Y     HAL2     0.900000E-01   1.00800           0
      2715 MEMB     21       DOPC     C317     CTL2    -0.180000       12.0110           0
      2716 MEMB     21       DOPC     H17X     HAL2     0.900000E-01   1.00800           0
      2717 MEMB     21       DOPC     H17Y     HAL2     0.900000E-01   1.00800           0
      2718 MEMB     21       DOPC     C318     CTL3    -0.270000       12.0110           0
      2719 MEMB     21       DOPC     H18X     HAL3     0.900000E-01   1.00800           0
      2720 MEMB     21       DOPC     H18Y     HAL3     0.900000E-01   1.00800           0
      2721 MEMB     21       DOPC     H18Z     HAL3     0.900000E-01   1.00800           0
      2722 MEMB     22       DOPC     N        NTL     -0.600000       14.0070           0
      2723 MEMB     22       DOPC     C12      CTL2    -0.100000       12.0110           0
      2724 MEMB     22       DOPC     H12A     HL       0.250000       1.00800           0
      2725 MEMB     22       DOPC     H12B     HL       0.250000       1.00800           0
      2726 MEMB     22       DOPC     C13      CTL5    -0.350000       12.0110           0
      2727 MEMB     22       DOPC     H13A     HL       0.250000       1.00800           0
      2728 MEMB     22       DOPC     H13B     HL       0.250000       1.00800           0
      2729 MEMB     22       DOPC     H13C     HL       0.250000       1.00800           0
      2730 MEMB     22       DOPC     C14      CTL5    -0.350000       12.0110           0
      2731 MEMB     22       DOPC     H14A     HL       0.250000       1.00800           0
      2732 MEMB     22       DOPC     H14B     HL       0.250000       1.00800           0
      2733 MEMB     22       DOPC     H14C     HL       0.250000       1.00800           0
      2734 MEMB     22       DOPC     C15      CTL5    -0.350000       12.0110           0
      2735 MEMB     22       DOPC     H15A     HL       0.250000       1.00800           0
      2736 MEMB     22       DOPC     H15B     HL       0.250000       1.00800           0
      2737 MEMB     22       DOPC     H15C     HL       0.250000       1.00800           0
      2738 MEMB     22       DOPC     C11      CTL2    -0.800000E-01   12.0110           0
      2739 MEMB     22       DOPC     H11A     HAL2     0.900000E-01   1.00800           0
      2740 MEMB     22       DOPC     H11B     HAL2     0.900000E-01   1.00800           0
      2741 MEMB     22       DOPC     P        PL        1.50000       30.9740           0
      2742 MEMB     22       DOPC     O13      O2L     -0.780000       15.9994           0
      2743 MEMB     22       DOPC     O14      O2L     -0.780000       15.9994           0
      2744 MEMB     22       DOPC     O12      OSLP    -0.570000       15.9994           0
      2745 MEMB     22       DOPC     O11      OSLP    -0.570000       15.9994           0
      2746 MEMB     22       DOPC     C1       CTL2    -0.800000E-01   12.0110           0
      2747 MEMB     22       DOPC     HA       HAL2     0.900000E-01   1.00800           0
      2748 MEMB     22       DOPC     HB       HAL2     0.900000E-01   1.00800           0
      2749 MEMB     22       DOPC     C2       CTL1     0.170000       12.0110           0
      2750 MEMB     22       DOPC     HS       HAL1     0.900000E-01   1.00800           0
      2751 MEMB     22       DOPC     O21      OSL     -0.490000       15.9994           0
      2752 MEMB     22       DOPC     C21      CL       0.900000       12.0110           0
      2753 MEMB     22       DOPC     O22      OBL     -0.630000       15.9994           0
      2754 MEMB     22       DOPC     C22      CTL2    -0.220000       12.0110           0
      2755 MEMB     22       DOPC     H2R      HAL2     0.900000E-01   1.00800           0
      2756 MEMB     22       DOPC     H2S      HAL2     0.900000E-01   1.00800           0
      2757 MEMB     22       DOPC     C3       CTL2     0.800000E-01   12.0110           0
      2758 MEMB     22       DOPC     HX       HAL2     0.900000E-01   1.00800           0
      2759 MEMB     22       DOPC     HY       HAL2     0.900000E-01   1.00800           0
      2760 MEMB     22       DOPC     O31      OSL     -0.490000       15.9994           0
      2761 MEMB     22       DOPC     C31      CL       0.900000       12.0110           0
      2762 MEMB     22       DOPC     O32      OBL     -0.630000       15.9994           0
      2763 MEMB     22       DOPC     C32      CTL2    -0.220000       12.0110           0
      2764 MEMB     22       DOPC     H2X      HAL2     0.900000E-01   1.00800           0
      2765 MEMB     22       DOPC     H2Y      HAL2     0.900000E-01   1.00800           0
      2766 MEMB     22       DOPC     C23      CTL2    -0.180000       12.0110           0
      2767 MEMB     22       DOPC     H3R      HAL2     0.900000E-01   1.00800           0
      2768 MEMB     22       DOPC     H3S      HAL2     0.900000E-01   1.00800           0
      2769 MEMB     22       DOPC     C24      CTL2    -0.180000       12.0110           0
      2770 MEMB     22       DOPC     H4R      HAL2     0.900000E-01   1.00800           0
      2771 MEMB     22       DOPC     H4S      HAL2     0.900000E-01   1.00800           0
      2772 MEMB     22       DOPC     C25      CTL2    -0.180000       12.0110           0
      2773 MEMB     22       DOPC     H5R      HAL2     0.900000E-01   1.00800           0
      2774 MEMB     22       DOPC     H5S      HAL2     0.900000E-01   1.00800           0
      2775 MEMB     22       DOPC     C26      CTL2    -0.180000       12.0110           0
      2776 MEMB     22       DOPC     H6R      HAL2     0.900000E-01   1.00800           0
      2777 MEMB     22       DOPC     H6S      HAL2     0.900000E-01   1.00800           0
      2778 MEMB     22       DOPC     C27      CTL2    -0.180000       12.0110           0
      2779 MEMB     22       DOPC     H7R      HAL2     0.900000E-01   1.00800           0
      2780 MEMB     22       DOPC     H7S      HAL2     0.900000E-01   1.00800           0
      2781 MEMB     22       DOPC     C28      CTL2    -0.180000       12.0110           0
      2782 MEMB     22       DOPC     H8R      HAL2     0.900000E-01   1.00800           0
      2783 MEMB     22       DOPC     H8S      HAL2     0.900000E-01   1.00800           0
      2784 MEMB     22       DOPC     C29      CEL1    -0.150000       12.0110           0
      2785 MEMB     22       DOPC     H9R      HEL1     0.150000       1.00800           0
      2786 MEMB     22       DOPC     C210     CEL1    -0.150000       12.0110           0
      2787 MEMB     22       DOPC     H10R     HEL1     0.150000       1.00800           0
      2788 MEMB     22       DOPC     C211     CTL2    -0.180000       12.0110           0
      2789 MEMB     22       DOPC     H11R     HAL2     0.900000E-01   1.00800           0
      2790 MEMB     22       DOPC     H11S     HAL2     0.900000E-01   1.00800           0
      2791 MEMB     22       DOPC     C212     CTL2    -0.180000       12.0110           0
      2792 MEMB     22       DOPC     H12R     HAL2     0.900000E-01   1.00800           0
      2793 MEMB     22       DOPC     H12S     HAL2     0.900000E-01   1.00800           0
      2794 MEMB     22       DOPC     C213     CTL2    -0.180000       12.0110           0
      2795 MEMB     22       DOPC     H13R     HAL2     0.900000E-01   1.00800           0
      2796 MEMB     22       DOPC     H13S     HAL2     0.900000E-01   1.00800           0
      2797 MEMB     22       DOPC     C214     CTL2    -0.180000       12.0110           0
      2798 MEMB     22       DOPC     H14R     HAL2     0.900000E-01   1.00800           0
      2799 MEMB     22       DOPC     H14S     HAL2     0.900000E-01   1.00800           0
      2800 MEMB     22       DOPC     C215     CTL2    -0.180000       12.0110           0
      2801 MEMB     22       DOPC     H15R     HAL2     0.900000E-01   1.00800           0
      2802 MEMB     22       DOPC     H15S     HAL2     0.900000E-01   1.00800           0
      2803 MEMB     22       DOPC     C216     CTL2    -0.180000       12.0110           0
      2804 MEMB     22       DOPC     H16R     HAL2     0.900000E-01   1.00800           0
      2805 MEMB     22       DOPC     H16S     HAL2     0.900000E-01   1.00800           0
      2806 MEMB     22       DOPC     C217     CTL2    -0.180000       12.0110           0
      2807 MEMB     22       DOPC     H17R     HAL2     0.900000E-01   1.00800           0
      2808 MEMB     22       DOPC     H17S     HAL2     0.900000E-01   1.00800           0
      2809 MEMB     22       DOPC     C218     CTL3    -0.270000       12.0110           0
      2810 MEMB     22       DOPC     H18R     HAL3     0.900000E-01   1.00800           0
      2811 MEMB     22       DOPC     H18S     HAL3     0.900000E-01   1.00800           0
      2812 MEMB     22       DOPC     H18T     HAL3     0.900000E-01   1.00800           0
      2813 MEMB     22       DOPC     C33      CTL2    -0.180000       12.0110           0
      2814 MEMB     22       DOPC     H3X      HAL2     0.900000E-01   1.00800           0
      2815 MEMB     22       DOPC     H3Y      HAL2     0.900000E-01   1.00800           0
      2816 MEMB     22       DOPC     C34      CTL2    -0.180000       12.0110           0
      2817 MEMB     22       DOPC     H4X      HAL2     0.900000E-01   1.00800           0
      2818 MEMB     22       DOPC     H4Y      HAL2     0.900000E-01   1.00800           0
      2819 MEMB     22       DOPC     C35      CTL2    -0.180000       12.0110           0
      2820 MEMB     22       DOPC     H5X      HAL2     0.900000E-01   1.00800           0
      2821 MEMB     22       DOPC     H5Y      HAL2     0.900000E-01   1.00800           0
      2822 MEMB     22       DOPC     C36      CTL2    -0.180000       12.0110           0
      2823 MEMB     22       DOPC     H6X      HAL2     0.900000E-01   1.00800           0
      2824 MEMB     22       DOPC     H6Y      HAL2     0.900000E-01   1.00800           0
      2825 MEMB     22       DOPC     C37      CTL2    -0.180000       12.0110           0
      2826 MEMB     22       DOPC     H7X      HAL2     0.900000E-01   1.00800           0
      2827 MEMB     22       DOPC     H7Y      HAL2     0.900000E-01   1.00800           0
      2828 MEMB     22       DOPC     C38      CTL2    -0.180000       12.0110           0
      2829 MEMB     22       DOPC     H8X      HAL2     0.900000E-01   1.00800           0
      2830 MEMB     22       DOPC     H8Y      HAL2     0.900000E-01   1.00800           0
      2831 MEMB     22       DOPC     C39      CEL1    -0.150000       12.0110           0
      2832 MEMB     22       DOPC     H9X      HEL1     0.150000       1.00800           0
      2833 MEMB     22       DOPC     C310     CEL1    -0.150000       12.0110           0
      2834 MEMB     22       DOPC     H10X     HEL1     0.150000       1.00800           0
      2835 MEMB     22       DOPC     C311     CTL2    -0.180000       12.0110           0
      2836 MEMB     22       DOPC     H11X     HAL2     0.900000E-01   1.00800           0
      2837 MEMB     22       DOPC     H11Y     HAL2     0.900000E-01   1.00800           0
      2838 MEMB     22       DOPC     C312     CTL2    -0.180000       12.0110           0
      2839 MEMB     22       DOPC     H12X     HAL2     0.900000E-01   1.00800           0
      2840 MEMB     22       DOPC     H12Y     HAL2     0.900000E-01   1.00800           0
      2841 MEMB     22       DOPC     C313     CTL2    -0.180000       12.0110           0
      2842 MEMB     22       DOPC     H13X     HAL2     0.900000E-01   1.00800           0
      2843 MEMB     22       DOPC     H13Y     HAL2     0.900000E-01   1.00800           0
      2844 MEMB     22       DOPC     C314     CTL2    -0.180000       12.0110           0
      2845 MEMB     22       DOPC     H14X     HAL2     0.900000E-01   1.00800           0
      2846 MEMB     22       DOPC     H14Y     HAL2     0.900000E-01   1.00800           0
      2847 MEMB     22       DOPC     C315     CTL2    -0.180000       12.0110           0
      2848 MEMB     22       DOPC     H15X     HAL2     0.900000E-01   1.00800           0
      2849 MEMB     22       DOPC     H15Y     HAL2     0.900000E-01   1.00800           0
      2850 MEMB     22       DOPC     C316     CTL2    -0.180000       12.0110           0
      2851 MEMB     22       DOPC     H16X     HAL2     0.900000E-01   1.00800           0
      2852 MEMB     22       DOPC     H16Y     HAL2     0.900000E-01   1.00800           0
      2853 MEMB     22       DOPC     C317     CTL2    -0.180000       12.0110           0
      2854 MEMB     22       DOPC     H17X     HAL2     0.900000E-01   1.00800           0
      2855 MEMB     22       DOPC     H17Y     HAL2     0.900000E-01   1.00800           0
      2856 MEMB     22       DOPC     C318     CTL3    -0.270000       12.0110           0
      2857 MEMB     22       DOPC     H18X     HAL3     0.900000E-01   1.00800           0
      2858 MEMB     22       DOPC     H18Y     HAL3     0.900000E-01   1.00800           0
      2859 MEMB     22       DOPC     H18Z     HAL3     0.900000E-01   1.00800           0
      2860 MEMB     23       23SM     N        NTL     -0.600000       14.0070           0
      2861 MEMB     23       23SM     C15      CTL5    -0.350000       12.0110           0
      2862 MEMB     23       23SM     H15A     HL       0.250000       1.00800           0
      2863 MEMB     23       23SM     H15B     HL       0.250000       1.00800           0
      2864 MEMB     23       23SM     H15C     HL       0.250000       1.00800           0
      2865 MEMB     23       23SM     C14      CTL5    -0.350000       12.0110           0
      2866 MEMB     23       23SM     H14A     HL       0.250000       1.00800           0
      2867 MEMB     23       23SM     H14B     HL       0.250000       1.00800           0
      2868 MEMB     23       23SM     H14C     HL       0.250000       1.00800           0
      2869 MEMB     23       23SM     C13      CTL5    -0.350000       12.0110           0
      2870 MEMB     23       23SM     H13A     HL       0.250000       1.00800           0
      2871 MEMB     23       23SM     H13B     HL       0.250000       1.00800           0
      2872 MEMB     23       23SM     H13C     HL       0.250000       1.00800           0
      2873 MEMB     23       23SM     C12      CTL2    -0.100000       12.0110           0
      2874 MEMB     23       23SM     H12A     HL       0.250000       1.00800           0
      2875 MEMB     23       23SM     H12B     HL       0.250000       1.00800           0
      2876 MEMB     23       23SM     C11      CTL2    -0.800000E-01   12.0110           0
      2877 MEMB     23       23SM     H11A     HAL2     0.900000E-01   1.00800           0
      2878 MEMB     23       23SM     H11B     HAL2     0.900000E-01   1.00800           0
      2879 MEMB     23       23SM     P        PL        1.50000       30.9740           0
      2880 MEMB     23       23SM     O13      O2L     -0.780000       15.9994           0
      2881 MEMB     23       23SM     O14      O2L     -0.780000       15.9994           0
      2882 MEMB     23       23SM     O11      OSLP    -0.570000       15.9994           0
      2883 MEMB     23       23SM     O12      OSLP    -0.570000       15.9994           0
      2884 MEMB     23       23SM     C1S      CTL2    -0.800000E-01   12.0110           0
      2885 MEMB     23       23SM     H1S      HAL2     0.900000E-01   1.00800           0
      2886 MEMB     23       23SM     H1T      HAL2     0.900000E-01   1.00800           0
      2887 MEMB     23       23SM     NF       NHL     -0.700000       14.0070           0
      2888 MEMB     23       23SM     HNF      H        0.350000       1.00800           0
      2889 MEMB     23       23SM     C2S      CTL1     0.300000       12.0110           0
      2890 MEMB     23       23SM     H2S      HAL1     0.500000E-01   1.00800           0
      2891 MEMB     23       23SM     C3S      CTO1     0.500000       12.0110           0
      2892 MEMB     23       23SM     H3S      HAL1    -0.110000       1.00800           0
      2893 MEMB     23       23SM     O3       OHL     -0.690000       15.9994           0
      2894 MEMB     23       23SM     HO3      HOL      0.300000       1.00800           0
      2895 MEMB     23       23SM     C4S      CEL3    -0.150000       12.0110           0
      2896 MEMB     23       23SM     H4S      HEL1     0.150000       1.00800           0
      2897 MEMB     23       23SM     C5S      CEL3    -0.150000       12.0110           0
      2898 MEMB     23       23SM     H5S      HEL1     0.150000       1.00800           0
      2899 MEMB     23       23SM     C6S      CTL2    -0.180000       12.0110           0
      2900 MEMB     23       23SM     H6S      HAL2     0.900000E-01   1.00800           0
      2901 MEMB     23       23SM     H6T      HAL2     0.900000E-01   1.00800           0
      2902 MEMB     23       23SM     C7S      CTL2    -0.180000       12.0110           0
      2903 MEMB     23       23SM     H7S      HAL2     0.900000E-01   1.00800           0
      2904 MEMB     23       23SM     H7T      HAL2     0.900000E-01   1.00800           0
      2905 MEMB     23       23SM     C8S      CTL2    -0.180000       12.0110           0
      2906 MEMB     23       23SM     H8S      HAL2     0.900000E-01   1.00800           0
      2907 MEMB     23       23SM     H8T      HAL2     0.900000E-01   1.00800           0
      2908 MEMB     23       23SM     C9S      CTL2    -0.180000       12.0110           0
      2909 MEMB     23       23SM     H9S      HAL2     0.900000E-01   1.00800           0
      2910 MEMB     23       23SM     H9T      HAL2     0.900000E-01   1.00800           0
      2911 MEMB     23       23SM     C10S     CTL2    -0.180000       12.0110           0
      2912 MEMB     23       23SM     H10S     HAL2     0.900000E-01   1.00800           0
      2913 MEMB     23       23SM     H10T     HAL2     0.900000E-01   1.00800           0
      2914 MEMB     23       23SM     C11S     CTL2    -0.180000       12.0110           0
      2915 MEMB     23       23SM     H11S     HAL2     0.900000E-01   1.00800           0
      2916 MEMB     23       23SM     H11T     HAL2     0.900000E-01   1.00800           0
      2917 MEMB     23       23SM     C12S     CTL2    -0.180000       12.0110           0
      2918 MEMB     23       23SM     H12S     HAL2     0.900000E-01   1.00800           0
      2919 MEMB     23       23SM     H12T     HAL2     0.900000E-01   1.00800           0
      2920 MEMB     23       23SM     C13S     CTL2    -0.180000       12.0110           0
      2921 MEMB     23       23SM     H13S     HAL2     0.900000E-01   1.00800           0
      2922 MEMB     23       23SM     H13T     HAL2     0.900000E-01   1.00800           0
      2923 MEMB     23       23SM     C14S     CTL2    -0.180000       12.0110           0
      2924 MEMB     23       23SM     H14S     HAL2     0.900000E-01   1.00800           0
      2925 MEMB     23       23SM     H14T     HAL2     0.900000E-01   1.00800           0
      2926 MEMB     23       23SM     C15S     CTL2    -0.180000       12.0110           0
      2927 MEMB     23       23SM     H15S     HAL2     0.900000E-01   1.00800           0
      2928 MEMB     23       23SM     H15T     HAL2     0.900000E-01   1.00800           0
      2929 MEMB     23       23SM     C16S     CTL2    -0.180000       12.0110           0
      2930 MEMB     23       23SM     H16S     HAL2     0.900000E-01   1.00800           0
      2931 MEMB     23       23SM     H16T     HAL2     0.900000E-01   1.00800           0
      2932 MEMB     23       23SM     C17S     CTL2    -0.180000       12.0110           0
      2933 MEMB     23       23SM     H17S     HAL2     0.900000E-01   1.00800           0
      2934 MEMB     23       23SM     H17T     HAL2     0.900000E-01   1.00800           0
      2935 MEMB     23       23SM     C18S     CTL3    -0.270000       12.0110           0
      2936 MEMB     23       23SM     H18S     HAL3     0.900000E-01   1.00800           0
      2937 MEMB     23       23SM     H18T     HAL3     0.900000E-01   1.00800           0
      2938 MEMB     23       23SM     H18U     HAL3     0.900000E-01   1.00800           0
      2939 MEMB     23       23SM     C1F      C        0.550000       12.0110           0
      2940 MEMB     23       23SM     OF       O       -0.600000       15.9994           0
      2941 MEMB     23       23SM     C2F      CTL2    -0.700000E-01   12.0110           0
      2942 MEMB     23       23SM     H2F      HAL2     0.600000E-01   1.00800           0
      2943 MEMB     23       23SM     H2G      HAL2     0.600000E-01   1.00800           0
      2944 MEMB     23       23SM     C3F      CTL2    -0.180000       12.0110           0
      2945 MEMB     23       23SM     H3F      HAL2     0.900000E-01   1.00800           0
      2946 MEMB     23       23SM     H3G      HAL2     0.900000E-01   1.00800           0
      2947 MEMB     23       23SM     C4F      CTL2    -0.180000       12.0110           0
      2948 MEMB     23       23SM     H4F      HAL2     0.900000E-01   1.00800           0
      2949 MEMB     23       23SM     H4G      HAL2     0.900000E-01   1.00800           0
      2950 MEMB     23       23SM     C5F      CTL2    -0.180000       12.0110           0
      2951 MEMB     23       23SM     H5F      HAL2     0.900000E-01   1.00800           0
      2952 MEMB     23       23SM     H5G      HAL2     0.900000E-01   1.00800           0
      2953 MEMB     23       23SM     C6F      CTL2    -0.180000       12.0110           0
      2954 MEMB     23       23SM     H6F      HAL2     0.900000E-01   1.00800           0
      2955 MEMB     23       23SM     H6G      HAL2     0.900000E-01   1.00800           0
      2956 MEMB     23       23SM     C7F      CTL2    -0.180000       12.0110           0
      2957 MEMB     23       23SM     H7F      HAL2     0.900000E-01   1.00800           0
      2958 MEMB     23       23SM     H7G      HAL2     0.900000E-01   1.00800           0
      2959 MEMB     23       23SM     C8F      CTL2    -0.180000       12.0110           0
      2960 MEMB     23       23SM     H8F      HAL2     0.900000E-01   1.00800           0
      2961 MEMB     23       23SM     H8G      HAL2     0.900000E-01   1.00800           0
      2962 MEMB     23       23SM     C9F      CTL2    -0.180000       12.0110           0
      2963 MEMB     23       23SM     H9F      HAL2     0.900000E-01   1.00800           0
      2964 MEMB     23       23SM     H9G      HAL2     0.900000E-01   1.00800           0
      2965 MEMB     23       23SM     C10F     CTL2    -0.180000       12.0110           0
      2966 MEMB     23       23SM     H10F     HAL2     0.900000E-01   1.00800           0
      2967 MEMB     23       23SM     H10G     HAL2     0.900000E-01   1.00800           0
      2968 MEMB     23       23SM     C11F     CTL2    -0.180000       12.0110           0
      2969 MEMB     23       23SM     H11F     HAL2     0.900000E-01   1.00800           0
      2970 MEMB     23       23SM     H11G     HAL2     0.900000E-01   1.00800           0
      2971 MEMB     23       23SM     C12F     CTL2    -0.180000       12.0110           0
      2972 MEMB     23       23SM     H12F     HAL2     0.900000E-01   1.00800           0
      2973 MEMB     23       23SM     H12G     HAL2     0.900000E-01   1.00800           0
      2974 MEMB     23       23SM     C13F     CTL2    -0.180000       12.0110           0
      2975 MEMB     23       23SM     H13F     HAL2     0.900000E-01   1.00800           0
      2976 MEMB     23       23SM     H13G     HAL2     0.900000E-01   1.00800           0
      2977 MEMB     23       23SM     C14F     CTL2    -0.180000       12.0110           0
      2978 MEMB     23       23SM     H14F     HAL2     0.900000E-01   1.00800           0
      2979 MEMB     23       23SM     H14G     HAL2     0.900000E-01   1.00800           0
      2980 MEMB     23       23SM     C15F     CTL2    -0.180000       12.0110           0
      2981 MEMB     23       23SM     H15F     HAL2     0.900000E-01   1.00800           0
      2982 MEMB     23       23SM     H15G     HAL2     0.900000E-01   1.00800           0
      2983 MEMB     23       23SM     C16F     CTL2    -0.180000       12.0110           0
      2984 MEMB     23       23SM     H16F     HAL2     0.900000E-01   1.00800           0
      2985 MEMB     23       23SM     H16G     HAL2     0.900000E-01   1.00800           0
      2986 MEMB     23       23SM     C17F     CTL2    -0.180000       12.0110           0
      2987 MEMB     23       23SM     H17F     HAL2     0.900000E-01   1.00800           0
      2988 MEMB     23       23SM     H17G     HAL2     0.900000E-01   1.00800           0
      2989 MEMB     23       23SM     C18F     CTL2    -0.180000       12.0110           0
      2990 MEMB     23       23SM     H18F     HAL2     0.900000E-01   1.00800           0
      2991 MEMB     23       23SM     H18G     HAL2     0.900000E-01   1.00800           0
      2992 MEMB     23       23SM     C19F     CTL2    -0.180000       12.0110           0
      2993 MEMB     23       23SM     H19F     HAL2     0.900000E-01   1.00800           0
      2994 MEMB     23       23SM     H19G     HAL2     0.900000E-01   1.00800           0
      2995 MEMB     23       23SM     C20F     CTL2    -0.180000       12.0110           0
      2996 MEMB     23       23SM     H20F     HAL2     0.900000E-01   1.00800           0
      2997 MEMB     23       23SM     H20G     HAL2     0.900000E-01   1.00800           0
      2998 MEMB     23       23SM     C21F     CTL2    -0.180000       12.0110           0
      2999 MEMB     23       23SM     H21F     HAL2     0.900000E-01   1.00800           0
      3000 MEMB     23       23SM     H21G     HAL2     0.900000E-01   1.00800           0
      3001 MEMB     23       23SM     C22F     CTL2    -0.180000       12.0110           0
      3002 MEMB     23       23SM     H22F     HAL2     0.900000E-01   1.00800           0
      3003 MEMB     23       23SM     H22G     HAL2     0.900000E-01   1.00800           0
      3004 MEMB     23       23SM     C23F     CTL3    -0.270000       12.0110           0
      3005 MEMB     23       23SM     H23F     HAL3     0.900000E-01   1.00800           0
      3006 MEMB     23       23SM     H23G     HAL3     0.900000E-01   1.00800           0
      3007 MEMB     23       23SM     H23H     HAL3     0.900000E-01   1.00800           0
      3008 MEMB     24       DOPC     N        NTL     -0.600000       14.0070           0
      3009 MEMB     24       DOPC     C12      CTL2    -0.100000       12.0110           0
      3010 MEMB     24       DOPC     H12A     HL       0.250000       1.00800           0
      3011 MEMB     24       DOPC     H12B     HL       0.250000       1.00800           0
      3012 MEMB     24       DOPC     C13      CTL5    -0.350000       12.0110           0
      3013 MEMB     24       DOPC     H13A     HL       0.250000       1.00800           0
      3014 MEMB     24       DOPC     H13B     HL       0.250000       1.00800           0
      3015 MEMB     24       DOPC     H13C     HL       0.250000       1.00800           0
      3016 MEMB     24       DOPC     C14      CTL5    -0.350000       12.0110           0
      3017 MEMB     24       DOPC     H14A     HL       0.250000       1.00800           0
      3018 MEMB     24       DOPC     H14B     HL       0.250000       1.00800           0
      3019 MEMB     24       DOPC     H14C     HL       0.250000       1.00800           0
      3020 MEMB     24       DOPC     C15      CTL5    -0.350000       12.0110           0
      3021 MEMB     24       DOPC     H15A     HL       0.250000       1.00800           0
      3022 MEMB     24       DOPC     H15B     HL       0.250000       1.00800           0
      3023 MEMB     24       DOPC     H15C     HL       0.250000       1.00800           0
      3024 MEMB     24       DOPC     C11      CTL2    -0.800000E-01   12.0110           0
      3025 MEMB     24       DOPC     H11A     HAL2     0.900000E-01   1.00800           0
      3026 MEMB     24       DOPC     H11B     HAL2     0.900000E-01   1.00800           0
      3027 MEMB     24       DOPC     P        PL        1.50000       30.9740           0
      3028 MEMB     24       DOPC     O13      O2L     -0.780000       15.9994           0
      3029 MEMB     24       DOPC     O14      O2L     -0.780000       15.9994           0
      3030 MEMB     24       DOPC     O12      OSLP    -0.570000       15.9994           0
      3031 MEMB     24       DOPC     O11      OSLP    -0.570000       15.9994           0
      3032 MEMB     24       DOPC     C1       CTL2    -0.800000E-01   12.0110           0
      3033 MEMB     24       DOPC     HA       HAL2     0.900000E-01   1.00800           0
      3034 MEMB     24       DOPC     HB       HAL2     0.900000E-01   1.00800           0
      3035 MEMB     24       DOPC     C2       CTL1     0.170000       12.0110           0
      3036 MEMB     24       DOPC     HS       HAL1     0.900000E-01   1.00800           0
      3037 MEMB     24       DOPC     O21      OSL     -0.490000       15.9994           0
      3038 MEMB     24       DOPC     C21      CL       0.900000       12.0110           0
      3039 MEMB     24       DOPC     O22      OBL     -0.630000       15.9994           0
      3040 MEMB     24       DOPC     C22      CTL2    -0.220000       12.0110           0
      3041 MEMB     24       DOPC     H2R      HAL2     0.900000E-01   1.00800           0
      3042 MEMB     24       DOPC     H2S      HAL2     0.900000E-01   1.00800           0
      3043 MEMB     24       DOPC     C3       CTL2     0.800000E-01   12.0110           0
      3044 MEMB     24       DOPC     HX       HAL2     0.900000E-01   1.00800           0
      3045 MEMB     24       DOPC     HY       HAL2     0.900000E-01   1.00800           0
      3046 MEMB     24       DOPC     O31      OSL     -0.490000       15.9994           0
      3047 MEMB     24       DOPC     C31      CL       0.900000       12.0110           0
      3048 MEMB     24       DOPC     O32      OBL     -0.630000       15.9994           0
      3049 MEMB     24       DOPC     C32      CTL2    -0.220000       12.0110           0
      3050 MEMB     24       DOPC     H2X      HAL2     0.900000E-01   1.00800           0
      3051 MEMB     24       DOPC     H2Y      HAL2     0.900000E-01   1.00800           0
      3052 MEMB     24       DOPC     C23      CTL2    -0.180000       12.0110           0
      3053 MEMB     24       DOPC     H3R      HAL2     0.900000E-01   1.00800           0
      3054 MEMB     24       DOPC     H3S      HAL2     0.900000E-01   1.00800           0
      3055 MEMB     24       DOPC     C24      CTL2    -0.180000       12.0110           0
      3056 MEMB     24       DOPC     H4R      HAL2     0.900000E-01   1.00800           0
      3057 MEMB     24       DOPC     H4S      HAL2     0.900000E-01   1.00800           0
      3058 MEMB     24       DOPC     C25      CTL2    -0.180000       12.0110           0
      3059 MEMB     24       DOPC     H5R      HAL2     0.900000E-01   1.00800           0
      3060 MEMB     24       DOPC     H5S      HAL2     0.900000E-01   1.00800           0
      3061 MEMB     24       DOPC     C26      CTL2    -0.180000       12.0110           0
      3062 MEMB     24       DOPC     H6R      HAL2     0.900000E-01   1.00800           0
      3063 MEMB     24       DOPC     H6S      HAL2     0.900000E-01   1.00800           0
      3064 MEMB     24       DOPC     C27      CTL2    -0.180000       12.0110           0
      3065 MEMB     24       DOPC     H7R      HAL2     0.900000E-01   1.00800           0
      3066 MEMB     24       DOPC     H7S      HAL2     0.900000E-01   1.00800           0
      3067 MEMB     24       DOPC     C28      CTL2    -0.180000       12.0110           0
      3068 MEMB     24       DOPC     H8R      HAL2     0.900000E-01   1.00800           0
      3069 MEMB     24       DOPC     H8S      HAL2     0.900000E-01   1.00800           0
      3070 MEMB     24       DOPC     C29      CEL1    -0.150000       12.0110           0
      3071 MEMB     24       DOPC     H9R      HEL1     0.150000       1.00800           0
      3072 MEMB     24       DOPC     C210     CEL1    -0.150000       12.0110           0
      3073 MEMB     24       DOPC     H10R     HEL1     0.150000       1.00800           0
      3074 MEMB     24       DOPC     C211     CTL2    -0.180000       12.0110           0
      3075 MEMB     24       DOPC     H11R     HAL2     0.900000E-01   1.00800           0
      3076 MEMB     24       DOPC     H11S     HAL2     0.900000E-01   1.00800           0
      3077 MEMB     24       DOPC     C212     CTL2    -0.180000       12.0110           0
      3078 MEMB     24       DOPC     H12R     HAL2     0.900000E-01   1.00800           0
      3079 MEMB     24       DOPC     H12S     HAL2     0.900000E-01   1.00800           0
      3080 MEMB     24       DOPC     C213     CTL2    -0.180000       12.0110           0
      3081 MEMB     24       DOPC     H13R     HAL2     0.900000E-01   1.00800           0
      3082 MEMB     24       DOPC     H13S     HAL2     0.900000E-01   1.00800           0
      3083 MEMB     24       DOPC     C214     CTL2    -0.180000       12.0110           0
      3084 MEMB     24       DOPC     H14R     HAL2     0.900000E-01   1.00800           0
      3085 MEMB     24       DOPC     H14S     HAL2     0.900000E-01   1.00800           0
      3086 MEMB     24       DOPC     C215     CTL2    -0.180000       12.0110           0
      3087 MEMB     24       DOPC     H15R     HAL2     0.900000E-01   1.00800           0
      3088 MEMB     24       DOPC     H15S     HAL2     0.900000E-01   1.00800           0
      3089 MEMB     24       DOPC     C216     CTL2    -0.180000       12.0110           0
      3090 MEMB     24       DOPC     H16R     HAL2     0.900000E-01   1.00800           0
      3091 MEMB     24       DOPC     H16S     HAL2     0.900000E-01   1.00800           0
      3092 MEMB     24       DOPC     C217     CTL2    -0.180000       12.0110           0
      3093 MEMB     24       DOPC     H17R     HAL2     0.900000E-01   1.00800           0
      3094 MEMB     24       DOPC     H17S     HAL2     0.900000E-01   1.00800           0
      3095 MEMB     24       DOPC     C218     CTL3    -0.270000       12.0110           0
      3096 MEMB     24       DOPC     H18R     HAL3     0.900000E-01   1.00800           0
      3097 MEMB     24       DOPC     H18S     HAL3     0.900000E-01   1.00800           0
      3098 MEMB     24       DOPC     H18T     HAL3     0.900000E-01   1.00800           0
      3099 MEMB     24       DOPC     C33      CTL2    -0.180000       12.0110           0
      3100 MEMB     24       DOPC     H3X      HAL2     0.900000E-01   1.00800           0
      3101 MEMB     24       DOPC     H3Y      HAL2     0.900000E-01   1.00800           0
      3102 MEMB     24       DOPC     C34      CTL2    -0.180000       12.0110           0
      3103 MEMB     24       DOPC     H4X      HAL2     0.900000E-01   1.00800           0
      3104 MEMB     24       DOPC     H4Y      HAL2     0.900000E-01   1.00800           0
      3105 MEMB     24       DOPC     C35      CTL2    -0.180000       12.0110           0
      3106 MEMB     24       DOPC     H5X      HAL2     0.900000E-01   1.00800           0
      3107 MEMB     24       DOPC     H5Y      HAL2     0.900000E-01   1.00800           0
      3108 MEMB     24       DOPC     C36      CTL2    -0.180000       12.0110           0
      3109 MEMB     24       DOPC     H6X      HAL2     0.900000E-01   1.00800           0
      3110 MEMB     24       DOPC     H6Y      HAL2     0.900000E-01   1.00800           0
      3111 MEMB     24       DOPC     C37      CTL2    -0.180000       12.0110           0
      3112 MEMB     24       DOPC     H7X      HAL2     0.900000E-01   1.00800           0
      3113 MEMB     24       DOPC     H7Y      HAL2     0.900000E-01   1.00800           0
      3114 MEMB     24       DOPC     C38      CTL2    -0.180000       12.0110           0
      3115 MEMB     24       DOPC     H8X      HAL2     0.900000E-01   1.00800           0
      3116 MEMB     24       DOPC     H8Y      HAL2     0.900000E-01   1.00800           0
      3117 MEMB     24       DOPC     C39      CEL1    -0.150000       12.0110           0
      3118 MEMB     24       DOPC     H9X      HEL1     0.150000       1.00800           0
      3119 MEMB     24       DOPC     C310     CEL1    -0.150000       12.0110           0
      3120 MEMB     24       DOPC     H10X     HEL1     0.150000       1.00800           0
      3121 MEMB     24       DOPC     C311     CTL2    -0.180000       12.0110           0
      3122 MEMB     24       DOPC     H11X     HAL2     0.900000E-01   1.00800           0
      3123 MEMB     24       DOPC     H11Y     HAL2     0.900000E-01   1.00800           0
      3124 MEMB     24       DOPC     C312     CTL2    -0.180000       12.0110           0
      3125 MEMB     24       DOPC     H12X     HAL2     0.900000E-01   1.00800           0
      3126 MEMB     24       DOPC     H12Y     HAL2     0.900000E-01   1.00800           0
      3127 MEMB     24       DOPC     C313     CTL2    -0.180000       12.0110           0
      3128 MEMB     24       DOPC     H13X     HAL2     0.900000E-01   1.00800           0
      3129 MEMB     24       DOPC     H13Y     HAL2     0.900000E-01   1.00800           0
      3130 MEMB     24       DOPC     C314     CTL2    -0.180000       12.0110           0
      3131 MEMB     24       DOPC     H14X     HAL2     0.900000E-01   1.00800           0
      3132 MEMB     24       DOPC     H14Y     HAL2     0.900000E-01   1.00800           0
      3133 MEMB     24       DOPC     C315     CTL2    -0.180000       12.0110           0
      3134 MEMB     24       DOPC     H15X     HAL2     0.900000E-01   1.00800           0
      3135 MEMB     24       DOPC     H15Y     HAL2     0.900000E-01   1.00800           0
      3136 MEMB     24       DOPC     C316     CTL2    -0.180000       12.0110           0
      3137 MEMB     24       DOPC     H16X     HAL2     0.900000E-01   1.00800           0
      3138 MEMB     24       DOPC     H16Y     HAL2     0.900000E-01   1.00800           0
      3139 MEMB     24       DOPC     C317     CTL2    -0.180000       12.0110           0
      3140 MEMB     24       DOPC     H17X     HAL2     0.900000E-01   1.00800           0
      3141 MEMB     24       DOPC     H17Y     HAL2     0.900000E-01   1.00800           0
      3142 MEMB     24       DOPC     C318     CTL3    -0.270000       12.0110           0
      3143 MEMB     24       DOPC     H18X     HAL3     0.900000E-01   1.00800           0
      3144 MEMB     24       DOPC     H18Y     HAL3     0.900000E-01   1.00800           0
      3145 MEMB     24       DOPC     H18Z     HAL3     0.900000E-01   1.00800           0
      3146 MEMB     25       DOPE     N        NH3L    -0.300000       14.0070           0
      3147 MEMB     25       DOPE     HN1      HCL      0.330000       1.00800           0
      3148 MEMB     25       DOPE     HN2      HCL      0.330000       1.00800           0
      3149 MEMB     25       DOPE     HN3      HCL      0.330000       1.00800           0
      3150 MEMB     25       DOPE     C12      CTL2     0.130000       12.0110           0
      3151 MEMB     25       DOPE     H12A     HAL2     0.900000E-01   1.00800           0
      3152 MEMB     25       DOPE     H12B     HAL2     0.900000E-01   1.00800           0
      3153 MEMB     25       DOPE     C11      CTL2    -0.800000E-01   12.0110           0
      3154 MEMB     25       DOPE     H11A     HAL2     0.900000E-01   1.00800           0
      3155 MEMB     25       DOPE     H11B     HAL2     0.900000E-01   1.00800           0
      3156 MEMB     25       DOPE     P        PL        1.50000       30.9740           0
      3157 MEMB     25       DOPE     O13      O2L     -0.780000       15.9994           0
      3158 MEMB     25       DOPE     O14      O2L     -0.780000       15.9994           0
      3159 MEMB     25       DOPE     O11      OSLP    -0.570000       15.9994           0
      3160 MEMB     25       DOPE     O12      OSLP    -0.570000       15.9994           0
      3161 MEMB     25       DOPE     C1       CTL2    -0.800000E-01   12.0110           0
      3162 MEMB     25       DOPE     HA       HAL2     0.900000E-01   1.00800           0
      3163 MEMB     25       DOPE     HB       HAL2     0.900000E-01   1.00800           0
      3164 MEMB     25       DOPE     C2       CTL1     0.170000       12.0110           0
      3165 MEMB     25       DOPE     HS       HAL1     0.900000E-01   1.00800           0
      3166 MEMB     25       DOPE     O21      OSL     -0.490000       15.9994           0
      3167 MEMB     25       DOPE     C21      CL       0.900000       12.0110           0
      3168 MEMB     25       DOPE     O22      OBL     -0.630000       15.9994           0
      3169 MEMB     25       DOPE     C22      CTL2    -0.220000       12.0110           0
      3170 MEMB     25       DOPE     H2R      HAL2     0.900000E-01   1.00800           0
      3171 MEMB     25       DOPE     H2S      HAL2     0.900000E-01   1.00800           0
      3172 MEMB     25       DOPE     C3       CTL2     0.800000E-01   12.0110           0
      3173 MEMB     25       DOPE     HX       HAL2     0.900000E-01   1.00800           0
      3174 MEMB     25       DOPE     HY       HAL2     0.900000E-01   1.00800           0
      3175 MEMB     25       DOPE     O31      OSL     -0.490000       15.9994           0
      3176 MEMB     25       DOPE     C31      CL       0.900000       12.0110           0
      3177 MEMB     25       DOPE     O32      OBL     -0.630000       15.9994           0
      3178 MEMB     25       DOPE     C32      CTL2    -0.220000       12.0110           0
      3179 MEMB     25       DOPE     H2X      HAL2     0.900000E-01   1.00800           0
      3180 MEMB     25       DOPE     H2Y      HAL2     0.900000E-01   1.00800           0
      3181 MEMB     25       DOPE     C23      CTL2    -0.180000       12.0110           0
      3182 MEMB     25       DOPE     H3R      HAL2     0.900000E-01   1.00800           0
      3183 MEMB     25       DOPE     H3S      HAL2     0.900000E-01   1.00800           0
      3184 MEMB     25       DOPE     C24      CTL2    -0.180000       12.0110           0
      3185 MEMB     25       DOPE     H4R      HAL2     0.900000E-01   1.00800           0
      3186 MEMB     25       DOPE     H4S      HAL2     0.900000E-01   1.00800           0
      3187 MEMB     25       DOPE     C25      CTL2    -0.180000       12.0110           0
      3188 MEMB     25       DOPE     H5R      HAL2     0.900000E-01   1.00800           0
      3189 MEMB     25       DOPE     H5S      HAL2     0.900000E-01   1.00800           0
      3190 MEMB     25       DOPE     C26      CTL2    -0.180000       12.0110           0
      3191 MEMB     25       DOPE     H6R      HAL2     0.900000E-01   1.00800           0
      3192 MEMB     25       DOPE     H6S      HAL2     0.900000E-01   1.00800           0
      3193 MEMB     25       DOPE     C27      CTL2    -0.180000       12.0110           0
      3194 MEMB     25       DOPE     H7R      HAL2     0.900000E-01   1.00800           0
      3195 MEMB     25       DOPE     H7S      HAL2     0.900000E-01   1.00800           0
      3196 MEMB     25       DOPE     C28      CTL2    -0.180000       12.0110           0
      3197 MEMB     25       DOPE     H8R      HAL2     0.900000E-01   1.00800           0
      3198 MEMB     25       DOPE     H8S      HAL2     0.900000E-01   1.00800           0
      3199 MEMB     25       DOPE     C29      CEL1    -0.150000       12.0110           0
      3200 MEMB     25       DOPE     H9R      HEL1     0.150000       1.00800           0
      3201 MEMB     25       DOPE     C210     CEL1    -0.150000       12.0110           0
      3202 MEMB     25       DOPE     H10R     HEL1     0.150000       1.00800           0
      3203 MEMB     25       DOPE     C211     CTL2    -0.180000       12.0110           0
      3204 MEMB     25       DOPE     H11R     HAL2     0.900000E-01   1.00800           0
      3205 MEMB     25       DOPE     H11S     HAL2     0.900000E-01   1.00800           0
      3206 MEMB     25       DOPE     C212     CTL2    -0.180000       12.0110           0
      3207 MEMB     25       DOPE     H12R     HAL2     0.900000E-01   1.00800           0
      3208 MEMB     25       DOPE     H12S     HAL2     0.900000E-01   1.00800           0
      3209 MEMB     25       DOPE     C213     CTL2    -0.180000       12.0110           0
      3210 MEMB     25       DOPE     H13R     HAL2     0.900000E-01   1.00800           0
      3211 MEMB     25       DOPE     H13S     HAL2     0.900000E-01   1.00800           0
      3212 MEMB     25       DOPE     C214     CTL2    -0.180000       12.0110           0
      3213 MEMB     25       DOPE     H14R     HAL2     0.900000E-01   1.00800           0
      3214 MEMB     25       DOPE     H14S     HAL2     0.900000E-01   1.00800           0
      3215 MEMB     25       DOPE     C215     CTL2    -0.180000       12.0110           0
      3216 MEMB     25       DOPE     H15R     HAL2     0.900000E-01   1.00800           0
      3217 MEMB     25       DOPE     H15S     HAL2     0.900000E-01   1.00800           0
      3218 MEMB     25       DOPE     C216     CTL2    -0.180000       12.0110           0
      3219 MEMB     25       DOPE     H16R     HAL2     0.900000E-01   1.00800           0
      3220 MEMB     25       DOPE     H16S     HAL2     0.900000E-01   1.00800           0
      3221 MEMB     25       DOPE     C217     CTL2    -0.180000       12.0110           0
      3222 MEMB     25       DOPE     H17R     HAL2     0.900000E-01   1.00800           0
      3223 MEMB     25       DOPE     H17S     HAL2     0.900000E-01   1.00800           0
      3224 MEMB     25       DOPE     C218     CTL3    -0.270000       12.0110           0
      3225 MEMB     25       DOPE     H18R     HAL3     0.900000E-01   1.00800           0
      3226 MEMB     25       DOPE     H18S     HAL3     0.900000E-01   1.00800           0
      3227 MEMB     25       DOPE     H18T     HAL3     0.900000E-01   1.00800           0
      3228 MEMB     25       DOPE     C33      CTL2    -0.180000       12.0110           0
      3229 MEMB     25       DOPE     H3X      HAL2     0.900000E-01   1.00800           0
      3230 MEMB     25       DOPE     H3Y      HAL2     0.900000E-01   1.00800           0
      3231 MEMB     25       DOPE     C34      CTL2    -0.180000       12.0110           0
      3232 MEMB     25       DOPE     H4X      HAL2     0.900000E-01   1.00800           0
      3233 MEMB     25       DOPE     H4Y      HAL2     0.900000E-01   1.00800           0
      3234 MEMB     25       DOPE     C35      CTL2    -0.180000       12.0110           0
      3235 MEMB     25       DOPE     H5X      HAL2     0.900000E-01   1.00800           0
      3236 MEMB     25       DOPE     H5Y      HAL2     0.900000E-01   1.00800           0
      3237 MEMB     25       DOPE     C36      CTL2    -0.180000       12.0110           0
      3238 MEMB     25       DOPE     H6X      HAL2     0.900000E-01   1.00800           0
      3239 MEMB     25       DOPE     H6Y      HAL2     0.900000E-01   1.00800           0
      3240 MEMB     25       DOPE     C37      CTL2    -0.180000       12.0110           0
      3241 MEMB     25       DOPE     H7X      HAL2     0.900000E-01   1.00800           0
      3242 MEMB     25       DOPE     H7Y      HAL2     0.900000E-01   1.00800           0
      3243 MEMB     25       DOPE     C38      CTL2    -0.180000       12.0110           0
      3244 MEMB     25       DOPE     H8X      HAL2     0.900000E-01   1.00800           0
      3245 MEMB     25       DOPE     H8Y      HAL2     0.900000E-01   1.00800           0
      3246 MEMB     25       DOPE     C39      CEL1    -0.150000       12.0110           0
      3247 MEMB     25       DOPE     H9X      HEL1     0.150000       1.00800           0
      3248 MEMB     25       DOPE     C310     CEL1    -0.150000       12.0110           0
      3249 MEMB     25       DOPE     H10X     HEL1     0.150000       1.00800           0
      3250 MEMB     25       DOPE     C311     CTL2    -0.180000       12.0110           0
      3251 MEMB     25       DOPE     H11X     HAL2     0.900000E-01   1.00800           0
      3252 MEMB     25       DOPE     H11Y     HAL2     0.900000E-01   1.00800           0
      3253 MEMB     25       DOPE     C312     CTL2    -0.180000       12.0110           0
      3254 MEMB     25       DOPE     H12X     HAL2     0.900000E-01   1.00800           0
      3255 MEMB     25       DOPE     H12Y     HAL2     0.900000E-01   1.00800           0
      3256 MEMB     25       DOPE     C313     CTL2    -0.180000       12.0110           0
      3257 MEMB     25       DOPE     H13X     HAL2     0.900000E-01   1.00800           0
      3258 MEMB     25       DOPE     H13Y     HAL2     0.900000E-01   1.00800           0
      3259 MEMB     25       DOPE     C314     CTL2    -0.180000       12.0110           0
      3260 MEMB     25       DOPE     H14X     HAL2     0.900000E-01   1.00800           0
      3261 MEMB     25       DOPE     H14Y     HAL2     0.900000E-01   1.00800           0
      3262 MEMB     25       DOPE     C315     CTL2    -0.180000       12.0110           0
      3263 MEMB     25       DOPE     H15X     HAL2     0.900000E-01   1.00800           0
      3264 MEMB     25       DOPE     H15Y     HAL2     0.900000E-01   1.00800           0
      3265 MEMB     25       DOPE     C316     CTL2    -0.180000       12.0110           0
      3266 MEMB     25       DOPE     H16X     HAL2     0.900000E-01   1.00800           0
      3267 MEMB     25       DOPE     H16Y     HAL2     0.900000E-01   1.00800           0
      3268 MEMB     25       DOPE     C317     CTL2    -0.180000       12.0110           0
      3269 MEMB     25       DOPE     H17X     HAL2     0.900000E-01   1.00800           0
      3270 MEMB     25       DOPE     H17Y     HAL2     0.900000E-01   1.00800           0
      3271 MEMB     25       DOPE     C318     CTL3    -0.270000       12.0110           0
      3272 MEMB     25       DOPE     H18X     HAL3     0.900000E-01   1.00800           0
      3273 MEMB     25       DOPE     H18Y     HAL3     0.900000E-01   1.00800           0
      3274 MEMB     25       DOPE     H18Z     HAL3     0.900000E-01   1.00800           0
      3275 MEMB     26       DOPE     N        NH3L    -0.300000       14.0070           0
      3276 MEMB     26       DOPE     HN1      HCL      0.330000       1.00800           0
      3277 MEMB     26       DOPE     HN2      HCL      0.330000       1.00800           0
      3278 MEMB     26       DOPE     HN3      HCL      0.330000       1.00800           0
      3279 MEMB     26       DOPE     C12      CTL2     0.130000       12.0110           0
      3280 MEMB     26       DOPE     H12A     HAL2     0.900000E-01   1.00800           0
      3281 MEMB     26       DOPE     H12B     HAL2     0.900000E-01   1.00800           0
      3282 MEMB     26       DOPE     C11      CTL2    -0.800000E-01   12.0110           0
      3283 MEMB     26       DOPE     H11A     HAL2     0.900000E-01   1.00800           0
      3284 MEMB     26       DOPE     H11B     HAL2     0.900000E-01   1.00800           0
      3285 MEMB     26       DOPE     P        PL        1.50000       30.9740           0
      3286 MEMB     26       DOPE     O13      O2L     -0.780000       15.9994           0
      3287 MEMB     26       DOPE     O14      O2L     -0.780000       15.9994           0
      3288 MEMB     26       DOPE     O11      OSLP    -0.570000       15.9994           0
      3289 MEMB     26       DOPE     O12      OSLP    -0.570000       15.9994           0
      3290 MEMB     26       DOPE     C1       CTL2    -0.800000E-01   12.0110           0
      3291 MEMB     26       DOPE     HA       HAL2     0.900000E-01   1.00800           0
      3292 MEMB     26       DOPE     HB       HAL2     0.900000E-01   1.00800           0
      3293 MEMB     26       DOPE     C2       CTL1     0.170000       12.0110           0
      3294 MEMB     26       DOPE     HS       HAL1     0.900000E-01   1.00800           0
      3295 MEMB     26       DOPE     O21      OSL     -0.490000       15.9994           0
      3296 MEMB     26       DOPE     C21      CL       0.900000       12.0110           0
      3297 MEMB     26       DOPE     O22      OBL     -0.630000       15.9994           0
      3298 MEMB     26       DOPE     C22      CTL2    -0.220000       12.0110           0
      3299 MEMB     26       DOPE     H2R      HAL2     0.900000E-01   1.00800           0
      3300 MEMB     26       DOPE     H2S      HAL2     0.900000E-01   1.00800           0
      3301 MEMB     26       DOPE     C3       CTL2     0.800000E-01   12.0110           0
      3302 MEMB     26       DOPE     HX       HAL2     0.900000E-01   1.00800           0
      3303 MEMB     26       DOPE     HY       HAL2     0.900000E-01   1.00800           0
      3304 MEMB     26       DOPE     O31      OSL     -0.490000       15.9994           0
      3305 MEMB     26       DOPE     C31      CL       0.900000       12.0110           0
      3306 MEMB     26       DOPE     O32      OBL     -0.630000       15.9994           0
      3307 MEMB     26       DOPE     C32      CTL2    -0.220000       12.0110           0
      3308 MEMB     26       DOPE     H2X      HAL2     0.900000E-01   1.00800           0
      3309 MEMB     26       DOPE     H2Y      HAL2     0.900000E-01   1.00800           0
      3310 MEMB     26       DOPE     C23      CTL2    -0.180000       12.0110           0
      3311 MEMB     26       DOPE     H3R      HAL2     0.900000E-01   1.00800           0
      3312 MEMB     26       DOPE     H3S      HAL2     0.900000E-01   1.00800           0
      3313 MEMB     26       DOPE     C24      CTL2    -0.180000       12.0110           0
      3314 MEMB     26       DOPE     H4R      HAL2     0.900000E-01   1.00800           0
      3315 MEMB     26       DOPE     H4S      HAL2     0.900000E-01   1.00800           0
      3316 MEMB     26       DOPE     C25      CTL2    -0.180000       12.0110           0
      3317 MEMB     26       DOPE     H5R      HAL2     0.900000E-01   1.00800           0
      3318 MEMB     26       DOPE     H5S      HAL2     0.900000E-01   1.00800           0
      3319 MEMB     26       DOPE     C26      CTL2    -0.180000       12.0110           0
      3320 MEMB     26       DOPE     H6R      HAL2     0.900000E-01   1.00800           0
      3321 MEMB     26       DOPE     H6S      HAL2     0.900000E-01   1.00800           0
      3322 MEMB     26       DOPE     C27      CTL2    -0.180000       12.0110           0
      3323 MEMB     26       DOPE     H7R      HAL2     0.900000E-01   1.00800           0
      3324 MEMB     26       DOPE     H7S      HAL2     0.900000E-01   1.00800           0
      3325 MEMB     26       DOPE     C28      CTL2    -0.180000       12.0110           0
      3326 MEMB     26       DOPE     H8R      HAL2     0.900000E-01   1.00800           0
      3327 MEMB     26       DOPE     H8S      HAL2     0.900000E-01   1.00800           0
      3328 MEMB     26       DOPE     C29      CEL1    -0.150000       12.0110           0
      3329 MEMB     26       DOPE     H9R      HEL1     0.150000       1.00800           0
      3330 MEMB     26       DOPE     C210     CEL1    -0.150000       12.0110           0
      3331 MEMB     26       DOPE     H10R     HEL1     0.150000       1.00800           0
      3332 MEMB     26       DOPE     C211     CTL2    -0.180000       12.0110           0
      3333 MEMB     26       DOPE     H11R     HAL2     0.900000E-01   1.00800           0
      3334 MEMB     26       DOPE     H11S     HAL2     0.900000E-01   1.00800           0
      3335 MEMB     26       DOPE     C212     CTL2    -0.180000       12.0110           0
      3336 MEMB     26       DOPE     H12R     HAL2     0.900000E-01   1.00800           0
      3337 MEMB     26       DOPE     H12S     HAL2     0.900000E-01   1.00800           0
      3338 MEMB     26       DOPE     C213     CTL2    -0.180000       12.0110           0
      3339 MEMB     26       DOPE     H13R     HAL2     0.900000E-01   1.00800           0
      3340 MEMB     26       DOPE     H13S     HAL2     0.900000E-01   1.00800           0
      3341 MEMB     26       DOPE     C214     CTL2    -0.180000       12.0110           0
      3342 MEMB     26       DOPE     H14R     HAL2     0.900000E-01   1.00800           0
      3343 MEMB     26       DOPE     H14S     HAL2     0.900000E-01   1.00800           0
      3344 MEMB     26       DOPE     C215     CTL2    -0.180000       12.0110           0
      3345 MEMB     26       DOPE     H15R     HAL2     0.900000E-01   1.00800           0
      3346 MEMB     26       DOPE     H15S     HAL2     0.900000E-01   1.00800           0
      3347 MEMB     26       DOPE     C216     CTL2    -0.180000       12.0110           0
      3348 MEMB     26       DOPE     H16R     HAL2     0.900000E-01   1.00800           0
      3349 MEMB     26       DOPE     H16S     HAL2     0.900000E-01   1.00800           0
      3350 MEMB     26       DOPE     C217     CTL2    -0.180000       12.0110           0
      3351 MEMB     26       DOPE     H17R     HAL2     0.900000E-01   1.00800           0
      3352 MEMB     26       DOPE     H17S     HAL2     0.900000E-01   1.00800           0
      3353 MEMB     26       DOPE     C218     CTL3    -0.270000       12.0110           0
      3354 MEMB     26       DOPE     H18R     HAL3     0.900000E-01   1.00800           0
      3355 MEMB     26       DOPE     H18S     HAL3     0.900000E-01   1.00800           0
      3356 MEMB     26       DOPE     H18T     HAL3     0.900000E-01   1.00800           0
      3357 MEMB     26       DOPE     C33      CTL2    -0.180000       12.0110           0
      3358 MEMB     26       DOPE     H3X      HAL2     0.900000E-01   1.00800           0
      3359 MEMB     26       DOPE     H3Y      HAL2     0.900000E-01   1.00800           0
      3360 MEMB     26       DOPE     C34      CTL2    -0.180000       12.0110           0
      3361 MEMB     26       DOPE     H4X      HAL2     0.900000E-01   1.00800           0
      3362 MEMB     26       DOPE     H4Y      HAL2     0.900000E-01   1.00800           0
      3363 MEMB     26       DOPE     C35      CTL2    -0.180000       12.0110           0
      3364 MEMB     26       DOPE     H5X      HAL2     0.900000E-01   1.00800           0
      3365 MEMB     26       DOPE     H5Y      HAL2     0.900000E-01   1.00800           0
      3366 MEMB     26       DOPE     C36      CTL2    -0.180000       12.0110           0
      3367 MEMB     26       DOPE     H6X      HAL2     0.900000E-01   1.00800           0
      3368 MEMB     26       DOPE     H6Y      HAL2     0.900000E-01   1.00800           0
      3369 MEMB     26       DOPE     C37      CTL2    -0.180000       12.0110           0
      3370 MEMB     26       DOPE     H7X      HAL2     0.900000E-01   1.00800           0
      3371 MEMB     26       DOPE     H7Y      HAL2     0.900000E-01   1.00800           0
      3372 MEMB     26       DOPE     C38      CTL2    -0.180000       12.0110           0
      3373 MEMB     26       DOPE     H8X      HAL2     0.900000E-01   1.00800           0
      3374 MEMB     26       DOPE     H8Y      HAL2     0.900000E-01   1.00800           0
      3375 MEMB     26       DOPE     C39      CEL1    -0.150000       12.0110           0
      3376 MEMB     26       DOPE     H9X      HEL1     0.150000       1.00800           0
      3377 MEMB     26       DOPE     C310     CEL1    -0.150000       12.0110           0
      3378 MEMB     26       DOPE     H10X     HEL1     0.150000       1.00800           0
      3379 MEMB     26       DOPE     C311     CTL2    -0.180000       12.0110           0
      3380 MEMB     26       DOPE     H11X     HAL2     0.900000E-01   1.00800           0
      3381 MEMB     26       DOPE     H11Y     HAL2     0.900000E-01   1.00800           0
      3382 MEMB     26       DOPE     C312     CTL2    -0.180000       12.0110           0
      3383 MEMB     26       DOPE     H12X     HAL2     0.900000E-01   1.00800           0
      3384 MEMB     26       DOPE     H12Y     HAL2     0.900000E-01   1.00800           0
      3385 MEMB     26       DOPE     C313     CTL2    -0.180000       12.0110           0
      3386 MEMB     26       DOPE     H13X     HAL2     0.900000E-01   1.00800           0
      3387 MEMB     26       DOPE     H13Y     HAL2     0.900000E-01   1.00800           0
      3388 MEMB     26       DOPE     C314     CTL2    -0.180000       12.0110           0
      3389 MEMB     26       DOPE     H14X     HAL2     0.900000E-01   1.00800           0
      3390 MEMB     26       DOPE     H14Y     HAL2     0.900000E-01   1.00800           0
      3391 MEMB     26       DOPE     C315     CTL2    -0.180000       12.0110           0
      3392 MEMB     26       DOPE     H15X     HAL2     0.900000E-01   1.00800           0
      3393 MEMB     26       DOPE     H15Y     HAL2     0.900000E-01   1.00800           0
      3394 MEMB     26       DOPE     C316     CTL2    -0.180000       12.0110           0
      3395 MEMB     26       DOPE     H16X     HAL2     0.900000E-01   1.00800           0
      3396 MEMB     26       DOPE     H16Y     HAL2     0.900000E-01   1.00800           0
      3397 MEMB     26       DOPE     C317     CTL2    -0.180000       12.0110           0
      3398 MEMB     26       DOPE     H17X     HAL2     0.900000E-01   1.00800           0
      3399 MEMB     26       DOPE     H17Y     HAL2     0.900000E-01   1.00800           0
      3400 MEMB     26       DOPE     C318     CTL3    -0.270000       12.0110           0
      3401 MEMB     26       DOPE     H18X     HAL3     0.900000E-01   1.00800           0
      3402 MEMB     26       DOPE     H18Y     HAL3     0.900000E-01   1.00800           0
      3403 MEMB     26       DOPE     H18Z     HAL3     0.900000E-01   1.00800           0
      3404 MEMB     27       DOPE     N        NH3L    -0.300000       14.0070           0
      3405 MEMB     27       DOPE     HN1      HCL      0.330000       1.00800           0
      3406 MEMB     27       DOPE     HN2      HCL      0.330000       1.00800           0
      3407 MEMB     27       DOPE     HN3      HCL      0.330000       1.00800           0
      3408 MEMB     27       DOPE     C12      CTL2     0.130000       12.0110           0
      3409 MEMB     27       DOPE     H12A     HAL2     0.900000E-01   1.00800           0
      3410 MEMB     27       DOPE     H12B     HAL2     0.900000E-01   1.00800           0
      3411 MEMB     27       DOPE     C11      CTL2    -0.800000E-01   12.0110           0
      3412 MEMB     27       DOPE     H11A     HAL2     0.900000E-01   1.00800           0
      3413 MEMB     27       DOPE     H11B     HAL2     0.900000E-01   1.00800           0
      3414 MEMB     27       DOPE     P        PL        1.50000       30.9740           0
      3415 MEMB     27       DOPE     O13      O2L     -0.780000       15.9994           0
      3416 MEMB     27       DOPE     O14      O2L     -0.780000       15.9994           0
      3417 MEMB     27       DOPE     O11      OSLP    -0.570000       15.9994           0
      3418 MEMB     27       DOPE     O12      OSLP    -0.570000       15.9994           0
      3419 MEMB     27       DOPE     C1       CTL2    -0.800000E-01   12.0110           0
      3420 MEMB     27       DOPE     HA       HAL2     0.900000E-01   1.00800           0
      3421 MEMB     27       DOPE     HB       HAL2     0.900000E-01   1.00800           0
      3422 MEMB     27       DOPE     C2       CTL1     0.170000       12.0110           0
      3423 MEMB     27       DOPE     HS       HAL1     0.900000E-01   1.00800           0
      3424 MEMB     27       DOPE     O21      OSL     -0.490000       15.9994           0
      3425 MEMB     27       DOPE     C21      CL       0.900000       12.0110           0
      3426 MEMB     27       DOPE     O22      OBL     -0.630000       15.9994           0
      3427 MEMB     27       DOPE     C22      CTL2    -0.220000       12.0110           0
      3428 MEMB     27       DOPE     H2R      HAL2     0.900000E-01   1.00800           0
      3429 MEMB     27       DOPE     H2S      HAL2     0.900000E-01   1.00800           0
      3430 MEMB     27       DOPE     C3       CTL2     0.800000E-01   12.0110           0
      3431 MEMB     27       DOPE     HX       HAL2     0.900000E-01   1.00800           0
      3432 MEMB     27       DOPE     HY       HAL2     0.900000E-01   1.00800           0
      3433 MEMB     27       DOPE     O31      OSL     -0.490000       15.9994           0
      3434 MEMB     27       DOPE     C31      CL       0.900000       12.0110           0
      3435 MEMB     27       DOPE     O32      OBL     -0.630000       15.9994           0
      3436 MEMB     27       DOPE     C32      CTL2    -0.220000       12.0110           0
      3437 MEMB     27       DOPE     H2X      HAL2     0.900000E-01   1.00800           0
      3438 MEMB     27       DOPE     H2Y      HAL2     0.900000E-01   1.00800           0
      3439 MEMB     27       DOPE     C23      CTL2    -0.180000       12.0110           0
      3440 MEMB     27       DOPE     H3R      HAL2     0.900000E-01   1.00800           0
      3441 MEMB     27       DOPE     H3S      HAL2     0.900000E-01   1.00800           0
      3442 MEMB     27       DOPE     C24      CTL2    -0.180000       12.0110           0
      3443 MEMB     27       DOPE     H4R      HAL2     0.900000E-01   1.00800           0
      3444 MEMB     27       DOPE     H4S      HAL2     0.900000E-01   1.00800           0
      3445 MEMB     27       DOPE     C25      CTL2    -0.180000       12.0110           0
      3446 MEMB     27       DOPE     H5R      HAL2     0.900000E-01   1.00800           0
      3447 MEMB     27       DOPE     H5S      HAL2     0.900000E-01   1.00800           0
      3448 MEMB     27       DOPE     C26      CTL2    -0.180000       12.0110           0
      3449 MEMB     27       DOPE     H6R      HAL2     0.900000E-01   1.00800           0
      3450 MEMB     27       DOPE     H6S      HAL2     0.900000E-01   1.00800           0
      3451 MEMB     27       DOPE     C27      CTL2    -0.180000       12.0110           0
      3452 MEMB     27       DOPE     H7R      HAL2     0.900000E-01   1.00800           0
      3453 MEMB     27       DOPE     H7S      HAL2     0.900000E-01   1.00800           0
      3454 MEMB     27       DOPE     C28      CTL2    -0.180000       12.0110           0
      3455 MEMB     27       DOPE     H8R      HAL2     0.900000E-01   1.00800           0
      3456 MEMB     27       DOPE     H8S      HAL2     0.900000E-01   1.00800           0
      3457 MEMB     27       DOPE     C29      CEL1    -0.150000       12.0110           0
      3458 MEMB     27       DOPE     H9R      HEL1     0.150000       1.00800           0
      3459 MEMB     27       DOPE     C210     CEL1    -0.150000       12.0110           0
      3460 MEMB     27       DOPE     H10R     HEL1     0.150000       1.00800           0
      3461 MEMB     27       DOPE     C211     CTL2    -0.180000       12.0110           0
      3462 MEMB     27       DOPE     H11R     HAL2     0.900000E-01   1.00800           0
      3463 MEMB     27       DOPE     H11S     HAL2     0.900000E-01   1.00800           0
      3464 MEMB     27       DOPE     C212     CTL2    -0.180000       12.0110           0
      3465 MEMB     27       DOPE     H12R     HAL2     0.900000E-01   1.00800           0
      3466 MEMB     27       DOPE     H12S     HAL2     0.900000E-01   1.00800           0
      3467 MEMB     27       DOPE     C213     CTL2    -0.180000       12.0110           0
      3468 MEMB     27       DOPE     H13R     HAL2     0.900000E-01   1.00800           0
      3469 MEMB     27       DOPE     H13S     HAL2     0.900000E-01   1.00800           0
      3470 MEMB     27       DOPE     C214     CTL2    -0.180000       12.0110           0
      3471 MEMB     27       DOPE     H14R     HAL2     0.900000E-01   1.00800           0
      3472 MEMB     27       DOPE     H14S     HAL2     0.900000E-01   1.00800           0
      3473 MEMB     27       DOPE     C215     CTL2    -0.180000       12.0110           0
      3474 MEMB     27       DOPE     H15R     HAL2     0.900000E-01   1.00800           0
      3475 MEMB     27       DOPE     H15S     HAL2     0.900000E-01   1.00800           0
      3476 MEMB     27       DOPE     C216     CTL2    -0.180000       12.0110           0
      3477 MEMB     27       DOPE     H16R     HAL2     0.900000E-01   1.00800           0
      3478 MEMB     27       DOPE     H16S     HAL2     0.900000E-01   1.00800           0
      3479 MEMB     27       DOPE     C217     CTL2    -0.180000       12.0110           0
      3480 MEMB     27       DOPE     H17R     HAL2     0.900000E-01   1.00800           0
      3481 MEMB     27       DOPE     H17S     HAL2     0.900000E-01   1.00800           0
      3482 MEMB     27       DOPE     C218     CTL3    -0.270000       12.0110           0
      3483 MEMB     27       DOPE     H18R     HAL3     0.900000E-01   1.00800           0
      3484 MEMB     27       DOPE     H18S     HAL3     0.900000E-01   1.00800           0
      3485 MEMB     27       DOPE     H18T     HAL3     0.900000E-01   1.00800           0
      3486 MEMB     27       DOPE     C33      CTL2    -0.180000       12.0110           0
      3487 MEMB     27       DOPE     H3X      HAL2     0.900000E-01   1.00800           0
      3488 MEMB     27       DOPE     H3Y      HAL2     0.900000E-01   1.00800           0
      3489 MEMB     27       DOPE     C34      CTL2    -0.180000       12.0110           0
      3490 MEMB     27       DOPE     H4X      HAL2     0.900000E-01   1.00800           0
      3491 MEMB     27       DOPE     H4Y      HAL2     0.900000E-01   1.00800           0
      3492 MEMB     27       DOPE     C35      CTL2    -0.180000       12.0110           0
      3493 MEMB     27       DOPE     H5X      HAL2     0.900000E-01   1.00800           0
      3494 MEMB     27       DOPE     H5Y      HAL2     0.900000E-01   1.00800           0
      3495 MEMB     27       DOPE     C36      CTL2    -0.180000       12.0110           0
      3496 MEMB     27       DOPE     H6X      HAL2     0.900000E-01   1.00800           0
      3497 MEMB     27       DOPE     H6Y      HAL2     0.900000E-01   1.00800           0
      3498 MEMB     27       DOPE     C37      CTL2    -0.180000       12.0110           0
      3499 MEMB     27       DOPE     H7X      HAL2     0.900000E-01   1.00800           0
      3500 MEMB     27       DOPE     H7Y      HAL2     0.900000E-01   1.00800           0
      3501 MEMB     27       DOPE     C38      CTL2    -0.180000       12.0110           0
      3502 MEMB     27       DOPE     H8X      HAL2     0.900000E-01   1.00800           0
      3503 MEMB     27       DOPE     H8Y      HAL2     0.900000E-01   1.00800           0
      3504 MEMB     27       DOPE     C39      CEL1    -0.150000       12.0110           0
      3505 MEMB     27       DOPE     H9X      HEL1     0.150000       1.00800           0
      3506 MEMB     27       DOPE     C310     CEL1    -0.150000       12.0110           0
      3507 MEMB     27       DOPE     H10X     HEL1     0.150000       1.00800           0
      3508 MEMB     27       DOPE     C311     CTL2    -0.180000       12.0110           0
      3509 MEMB     27       DOPE     H11X     HAL2     0.900000E-01   1.00800           0
      3510 MEMB     27       DOPE     H11Y     HAL2     0.900000E-01   1.00800           0
      3511 MEMB     27       DOPE     C312     CTL2    -0.180000       12.0110           0
      3512 MEMB     27       DOPE     H12X     HAL2     0.900000E-01   1.00800           0
      3513 MEMB     27       DOPE     H12Y     HAL2     0.900000E-01   1.00800           0
      3514 MEMB     27       DOPE     C313     CTL2    -0.180000       12.0110           0
      3515 MEMB     27       DOPE     H13X     HAL2     0.900000E-01   1.00800           0
      3516 MEMB     27       DOPE     H13Y     HAL2     0.900000E-01   1.00800           0
      3517 MEMB     27       DOPE     C314     CTL2    -0.180000       12.0110           0
      3518 MEMB     27       DOPE     H14X     HAL2     0.900000E-01   1.00800           0
      3519 MEMB     27       DOPE     H14Y     HAL2     0.900000E-01   1.00800           0
      3520 MEMB     27       DOPE     C315     CTL2    -0.180000       12.0110           0
      3521 MEMB     27       DOPE     H15X     HAL2     0.900000E-01   1.00800           0
      3522 MEMB     27       DOPE     H15Y     HAL2     0.900000E-01   1.00800           0
      3523 MEMB     27       DOPE     C316     CTL2    -0.180000       12.0110           0
      3524 MEMB     27       DOPE     H16X     HAL2     0.900000E-01   1.00800           0
      3525 MEMB     27       DOPE     H16Y     HAL2     0.900000E-01   1.00800           0
      3526 MEMB     27       DOPE     C317     CTL2    -0.180000       12.0110           0
      3527 MEMB     27       DOPE     H17X     HAL2     0.900000E-01   1.00800           0
      3528 MEMB     27       DOPE     H17Y     HAL2     0.900000E-01   1.00800           0
      3529 MEMB     27       DOPE     C318     CTL3    -0.270000       12.0110           0
      3530 MEMB     27       DOPE     H18X     HAL3     0.900000E-01   1.00800           0
      3531 MEMB     27       DOPE     H18Y     HAL3     0.900000E-01   1.00800           0
      3532 MEMB     27       DOPE     H18Z     HAL3     0.900000E-01   1.00800           0
      3533 MEMB     28       CHL1     C3       CRL1     0.140000       12.0110           0
      3534 MEMB     28       CHL1     H3       HGA1     0.900000E-01   1.00800           0
      3535 MEMB     28       CHL1     O3       OHL     -0.660000       15.9994           0
      3536 MEMB     28       CHL1     H3'      HOL      0.430000       1.00800           0
      3537 MEMB     28       CHL1     C4       CRL2    -0.180000       12.0110           0
      3538 MEMB     28       CHL1     H4A      HGA2     0.900000E-01   1.00800           0
      3539 MEMB     28       CHL1     H4B      HGA2     0.900000E-01   1.00800           0
      3540 MEMB     28       CHL1     C5       CEL1      0.00000       12.0110           0
      3541 MEMB     28       CHL1     C6       CEL1    -0.150000       12.0110           0
      3542 MEMB     28       CHL1     H6       HEL1     0.150000       1.00800           0
      3543 MEMB     28       CHL1     C7       CRL2    -0.180000       12.0110           0
      3544 MEMB     28       CHL1     H7A      HGA2     0.900000E-01   1.00800           0
      3545 MEMB     28       CHL1     H7B      HGA2     0.900000E-01   1.00800           0
      3546 MEMB     28       CHL1     C8       CRL1    -0.900000E-01   12.0110           0
      3547 MEMB     28       CHL1     H8       HGA1     0.900000E-01   1.00800           0
      3548 MEMB     28       CHL1     C14      CRL1    -0.900000E-01   12.0110           0
      3549 MEMB     28       CHL1     H14      HGA1     0.900000E-01   1.00800           0
      3550 MEMB     28       CHL1     C15      CRL2    -0.180000       12.0110           0
      3551 MEMB     28       CHL1     H15A     HGA2     0.900000E-01   1.00800           0
      3552 MEMB     28       CHL1     H15B     HGA2     0.900000E-01   1.00800           0
      3553 MEMB     28       CHL1     C16      CRL2    -0.180000       12.0110           0
      3554 MEMB     28       CHL1     H16A     HGA2     0.900000E-01   1.00800           0
      3555 MEMB     28       CHL1     H16B     HGA2     0.900000E-01   1.00800           0
      3556 MEMB     28       CHL1     C17      CRL1    -0.900000E-01   12.0110           0
      3557 MEMB     28       CHL1     H17      HGA1     0.900000E-01   1.00800           0
      3558 MEMB     28       CHL1     C13      CRL1      0.00000       12.0110           0
      3559 MEMB     28       CHL1     C18      CTL3    -0.270000       12.0110           0
      3560 MEMB     28       CHL1     H18A     HAL3     0.900000E-01   1.00800           0
      3561 MEMB     28       CHL1     H18B     HAL3     0.900000E-01   1.00800           0
      3562 MEMB     28       CHL1     H18C     HAL3     0.900000E-01   1.00800           0
      3563 MEMB     28       CHL1     C12      CRL2    -0.180000       12.0110           0
      3564 MEMB     28       CHL1     H12A     HGA2     0.900000E-01   1.00800           0
      3565 MEMB     28       CHL1     H12B     HGA2     0.900000E-01   1.00800           0
      3566 MEMB     28       CHL1     C11      CRL2    -0.180000       12.0110           0
      3567 MEMB     28       CHL1     H11A     HGA2     0.900000E-01   1.00800           0
      3568 MEMB     28       CHL1     H11B     HGA2     0.900000E-01   1.00800           0
      3569 MEMB     28       CHL1     C9       CRL1    -0.900000E-01   12.0110           0
      3570 MEMB     28       CHL1     H9       HGA1     0.900000E-01   1.00800           0
      3571 MEMB     28       CHL1     C10      CRL1      0.00000       12.0110           0
      3572 MEMB     28       CHL1     C19      CTL3    -0.270000       12.0110           0
      3573 MEMB     28       CHL1     H19A     HAL3     0.900000E-01   1.00800           0
      3574 MEMB     28       CHL1     H19B     HAL3     0.900000E-01   1.00800           0
      3575 MEMB     28       CHL1     H19C     HAL3     0.900000E-01   1.00800           0
      3576 MEMB     28       CHL1     C1       CRL2    -0.180000       12.0110           0
      3577 MEMB     28       CHL1     H1A      HGA2     0.900000E-01   1.00800           0
      3578 MEMB     28       CHL1     H1B      HGA2     0.900000E-01   1.00800           0
      3579 MEMB     28       CHL1     C2       CRL2    -0.180000       12.0110           0
      3580 MEMB     28       CHL1     H2A      HGA2     0.900000E-01   1.00800           0
      3581 MEMB     28       CHL1     H2B      HGA2     0.900000E-01   1.00800           0
      3582 MEMB     28       CHL1     C20      CTL1    -0.900000E-01   12.0110           0
      3583 MEMB     28       CHL1     H20      HAL1     0.900000E-01   1.00800           0
      3584 MEMB     28       CHL1     C21      CTL3    -0.270000       12.0110           0
      3585 MEMB     28       CHL1     H21A     HAL3     0.900000E-01   1.00800           0
      3586 MEMB     28       CHL1     H21B     HAL3     0.900000E-01   1.00800           0
      3587 MEMB     28       CHL1     H21C     HAL3     0.900000E-01   1.00800           0
      3588 MEMB     28       CHL1     C22      CTL2    -0.180000       12.0110           0
      3589 MEMB     28       CHL1     H22A     HAL2     0.900000E-01   1.00800           0
      3590 MEMB     28       CHL1     H22B     HAL2     0.900000E-01   1.00800           0
      3591 MEMB     28       CHL1     C23      CTL2    -0.180000       12.0110           0
      3592 MEMB     28       CHL1     H23A     HAL2     0.900000E-01   1.00800           0
      3593 MEMB     28       CHL1     H23B     HAL2     0.900000E-01   1.00800           0
      3594 MEMB     28       CHL1     C24      CTL2    -0.180000       12.0110           0
      3595 MEMB     28       CHL1     H24A     HAL2     0.900000E-01   1.00800           0
      3596 MEMB     28       CHL1     H24B     HAL2     0.900000E-01   1.00800           0
      3597 MEMB     28       CHL1     C25      CTL1    -0.900000E-01   12.0110           0
      3598 MEMB     28       CHL1     H25      HAL1     0.900000E-01   1.00800           0
      3599 MEMB     28       CHL1     C26      CTL3    -0.270000       12.0110           0
      3600 MEMB     28       CHL1     H26A     HAL3     0.900000E-01   1.00800           0
      3601 MEMB     28       CHL1     H26B     HAL3     0.900000E-01   1.00800           0
      3602 MEMB     28       CHL1     H26C     HAL3     0.900000E-01   1.00800           0
      3603 MEMB     28       CHL1     C27      CTL3    -0.270000       12.0110           0
      3604 MEMB     28       CHL1     H27A     HAL3     0.900000E-01   1.00800           0
      3605 MEMB     28       CHL1     H27B     HAL3     0.900000E-01   1.00800           0
      3606 MEMB     28       CHL1     H27C     HAL3     0.900000E-01   1.00800           0
      3607 MEMB     29       CHL1     C3       CRL1     0.140000       12.0110           0
      3608 MEMB     29       CHL1     H3       HGA1     0.900000E-01   1.00800           0
      3609 MEMB     29       CHL1     O3       OHL     -0.660000       15.9994           0
      3610 MEMB     29       CHL1     H3'      HOL      0.430000       1.00800           0
      3611 MEMB     29       CHL1     C4       CRL2    -0.180000       12.0110           0
      3612 MEMB     29       CHL1     H4A      HGA2     0.900000E-01   1.00800           0
      3613 MEMB     29       CHL1     H4B      HGA2     0.900000E-01   1.00800           0
      3614 MEMB     29       CHL1     C5       CEL1      0.00000       12.0110           0
      3615 MEMB     29       CHL1     C6       CEL1    -0.150000       12.0110           0
      3616 MEMB     29       CHL1     H6       HEL1     0.150000       1.00800           0
      3617 MEMB     29       CHL1     C7       CRL2    -0.180000       12.0110           0
      3618 MEMB     29       CHL1     H7A      HGA2     0.900000E-01   1.00800           0
      3619 MEMB     29       CHL1     H7B      HGA2     0.900000E-01   1.00800           0
      3620 MEMB     29       CHL1     C8       CRL1    -0.900000E-01   12.0110           0
      3621 MEMB     29       CHL1     H8       HGA1     0.900000E-01   1.00800           0
      3622 MEMB     29       CHL1     C14      CRL1    -0.900000E-01   12.0110           0
      3623 MEMB     29       CHL1     H14      HGA1     0.900000E-01   1.00800           0
      3624 MEMB     29       CHL1     C15      CRL2    -0.180000       12.0110           0
      3625 MEMB     29       CHL1     H15A     HGA2     0.900000E-01   1.00800           0
      3626 MEMB     29       CHL1     H15B     HGA2     0.900000E-01   1.00800           0
      3627 MEMB     29       CHL1     C16      CRL2    -0.180000       12.0110           0
      3628 MEMB     29       CHL1     H16A     HGA2     0.900000E-01   1.00800           0
      3629 MEMB     29       CHL1     H16B     HGA2     0.900000E-01   1.00800           0
      3630 MEMB     29       CHL1     C17      CRL1    -0.900000E-01   12.0110           0
      3631 MEMB     29       CHL1     H17      HGA1     0.900000E-01   1.00800           0
      3632 MEMB     29       CHL1     C13      CRL1      0.00000       12.0110           0
      3633 MEMB     29       CHL1     C18      CTL3    -0.270000       12.0110           0
      3634 MEMB     29       CHL1     H18A     HAL3     0.900000E-01   1.00800           0
      3635 MEMB     29       CHL1     H18B     HAL3     0.900000E-01   1.00800           0
      3636 MEMB     29       CHL1     H18C     HAL3     0.900000E-01   1.00800           0
      3637 MEMB     29       CHL1     C12      CRL2    -0.180000       12.0110           0
      3638 MEMB     29       CHL1     H12A     HGA2     0.900000E-01   1.00800           0
      3639 MEMB     29       CHL1     H12B     HGA2     0.900000E-01   1.00800           0
      3640 MEMB     29       CHL1     C11      CRL2    -0.180000       12.0110           0
      3641 MEMB     29       CHL1     H11A     HGA2     0.900000E-01   1.00800           0
      3642 MEMB     29       CHL1     H11B     HGA2     0.900000E-01   1.00800           0
      3643 MEMB     29       CHL1     C9       CRL1    -0.900000E-01   12.0110           0
      3644 MEMB     29       CHL1     H9       HGA1     0.900000E-01   1.00800           0
      3645 MEMB     29       CHL1     C10      CRL1      0.00000       12.0110           0
      3646 MEMB     29       CHL1     C19      CTL3    -0.270000       12.0110           0
      3647 MEMB     29       CHL1     H19A     HAL3     0.900000E-01   1.00800           0
      3648 MEMB     29       CHL1     H19B     HAL3     0.900000E-01   1.00800           0
      3649 MEMB     29       CHL1     H19C     HAL3     0.900000E-01   1.00800           0
      3650 MEMB     29       CHL1     C1       CRL2    -0.180000       12.0110           0
      3651 MEMB     29       CHL1     H1A      HGA2     0.900000E-01   1.00800           0
      3652 MEMB     29       CHL1     H1B      HGA2     0.900000E-01   1.00800           0
      3653 MEMB     29       CHL1     C2       CRL2    -0.180000       12.0110           0
      3654 MEMB     29       CHL1     H2A      HGA2     0.900000E-01   1.00800           0
      3655 MEMB     29       CHL1     H2B      HGA2     0.900000E-01   1.00800           0
      3656 MEMB     29       CHL1     C20      CTL1    -0.900000E-01   12.0110           0
      3657 MEMB     29       CHL1     H20      HAL1     0.900000E-01   1.00800           0
      3658 MEMB     29       CHL1     C21      CTL3    -0.270000       12.0110           0
      3659 MEMB     29       CHL1     H21A     HAL3     0.900000E-01   1.00800           0
      3660 MEMB     29       CHL1     H21B     HAL3     0.900000E-01   1.00800           0
      3661 MEMB     29       CHL1     H21C     HAL3     0.900000E-01   1.00800           0
      3662 MEMB     29       CHL1     C22      CTL2    -0.180000       12.0110           0
      3663 MEMB     29       CHL1     H22A     HAL2     0.900000E-01   1.00800           0
      3664 MEMB     29       CHL1     H22B     HAL2     0.900000E-01   1.00800           0
      3665 MEMB     29       CHL1     C23      CTL2    -0.180000       12.0110           0
      3666 MEMB     29       CHL1     H23A     HAL2     0.900000E-01   1.00800           0
      3667 MEMB     29       CHL1     H23B     HAL2     0.900000E-01   1.00800           0
      3668 MEMB     29       CHL1     C24      CTL2    -0.180000       12.0110           0
      3669 MEMB     29       CHL1     H24A     HAL2     0.900000E-01   1.00800           0
      3670 MEMB     29       CHL1     H24B     HAL2     0.900000E-01   1.00800           0
      3671 MEMB     29       CHL1     C25      CTL1    -0.900000E-01   12.0110           0
      3672 MEMB     29       CHL1     H25      HAL1     0.900000E-01   1.00800           0
      3673 MEMB     29       CHL1     C26      CTL3    -0.270000       12.0110           0
      3674 MEMB     29       CHL1     H26A     HAL3     0.900000E-01   1.00800           0
      3675 MEMB     29       CHL1     H26B     HAL3     0.900000E-01   1.00800           0
      3676 MEMB     29       CHL1     H26C     HAL3     0.900000E-01   1.00800           0
      3677 MEMB     29       CHL1     C27      CTL3    -0.270000       12.0110           0
      3678 MEMB     29       CHL1     H27A     HAL3     0.900000E-01   1.00800           0
      3679 MEMB     29       CHL1     H27B     HAL3     0.900000E-01   1.00800           0
      3680 MEMB     29       CHL1     H27C     HAL3     0.900000E-01   1.00800           0
      3681 MEMB     30       23SM     N        NTL     -0.600000       14.0070           0
      3682 MEMB     30       23SM     C15      CTL5    -0.350000       12.0110           0
      3683 MEMB     30       23SM     H15A     HL       0.250000       1.00800           0
      3684 MEMB     30       23SM     H15B     HL       0.250000       1.00800           0
      3685 MEMB     30       23SM     H15C     HL       0.250000       1.00800           0
      3686 MEMB     30       23SM     C14      CTL5    -0.350000       12.0110           0
      3687 MEMB     30       23SM     H14A     HL       0.250000       1.00800           0
      3688 MEMB     30       23SM     H14B     HL       0.250000       1.00800           0
      3689 MEMB     30       23SM     H14C     HL       0.250000       1.00800           0
      3690 MEMB     30       23SM     C13      CTL5    -0.350000       12.0110           0
      3691 MEMB     30       23SM     H13A     HL       0.250000       1.00800           0
      3692 MEMB     30       23SM     H13B     HL       0.250000       1.00800           0
      3693 MEMB     30       23SM     H13C     HL       0.250000       1.00800           0
      3694 MEMB     30       23SM     C12      CTL2    -0.100000       12.0110           0
      3695 MEMB     30       23SM     H12A     HL       0.250000       1.00800           0
      3696 MEMB     30       23SM     H12B     HL       0.250000       1.00800           0
      3697 MEMB     30       23SM     C11      CTL2    -0.800000E-01   12.0110           0
      3698 MEMB     30       23SM     H11A     HAL2     0.900000E-01   1.00800           0
      3699 MEMB     30       23SM     H11B     HAL2     0.900000E-01   1.00800           0
      3700 MEMB     30       23SM     P        PL        1.50000       30.9740           0
      3701 MEMB     30       23SM     O13      O2L     -0.780000       15.9994           0
      3702 MEMB     30       23SM     O14      O2L     -0.780000       15.9994           0
      3703 MEMB     30       23SM     O11      OSLP    -0.570000       15.9994           0
      3704 MEMB     30       23SM     O12      OSLP    -0.570000       15.9994           0
      3705 MEMB     30       23SM     C1S      CTL2    -0.800000E-01   12.0110           0
      3706 MEMB     30       23SM     H1S      HAL2     0.900000E-01   1.00800           0
      3707 MEMB     30       23SM     H1T      HAL2     0.900000E-01   1.00800           0
      3708 MEMB     30       23SM     NF       NHL     -0.700000       14.0070           0
      3709 MEMB     30       23SM     HNF      H        0.350000       1.00800           0
      3710 MEMB     30       23SM     C2S      CTL1     0.300000       12.0110           0
      3711 MEMB     30       23SM     H2S      HAL1     0.500000E-01   1.00800           0
      3712 MEMB     30       23SM     C3S      CTO1     0.500000       12.0110           0
      3713 MEMB     30       23SM     H3S      HAL1    -0.110000       1.00800           0
      3714 MEMB     30       23SM     O3       OHL     -0.690000       15.9994           0
      3715 MEMB     30       23SM     HO3      HOL      0.300000       1.00800           0
      3716 MEMB     30       23SM     C4S      CEL3    -0.150000       12.0110           0
      3717 MEMB     30       23SM     H4S      HEL1     0.150000       1.00800           0
      3718 MEMB     30       23SM     C5S      CEL3    -0.150000       12.0110           0
      3719 MEMB     30       23SM     H5S      HEL1     0.150000       1.00800           0
      3720 MEMB     30       23SM     C6S      CTL2    -0.180000       12.0110           0
      3721 MEMB     30       23SM     H6S      HAL2     0.900000E-01   1.00800           0
      3722 MEMB     30       23SM     H6T      HAL2     0.900000E-01   1.00800           0
      3723 MEMB     30       23SM     C7S      CTL2    -0.180000       12.0110           0
      3724 MEMB     30       23SM     H7S      HAL2     0.900000E-01   1.00800           0
      3725 MEMB     30       23SM     H7T      HAL2     0.900000E-01   1.00800           0
      3726 MEMB     30       23SM     C8S      CTL2    -0.180000       12.0110           0
      3727 MEMB     30       23SM     H8S      HAL2     0.900000E-01   1.00800           0
      3728 MEMB     30       23SM     H8T      HAL2     0.900000E-01   1.00800           0
      3729 MEMB     30       23SM     C9S      CTL2    -0.180000       12.0110           0
      3730 MEMB     30       23SM     H9S      HAL2     0.900000E-01   1.00800           0
      3731 MEMB     30       23SM     H9T      HAL2     0.900000E-01   1.00800           0
      3732 MEMB     30       23SM     C10S     CTL2    -0.180000       12.0110           0
      3733 MEMB     30       23SM     H10S     HAL2     0.900000E-01   1.00800           0
      3734 MEMB     30       23SM     H10T     HAL2     0.900000E-01   1.00800           0
      3735 MEMB     30       23SM     C11S     CTL2    -0.180000       12.0110           0
      3736 MEMB     30       23SM     H11S     HAL2     0.900000E-01   1.00800           0
      3737 MEMB     30       23SM     H11T     HAL2     0.900000E-01   1.00800           0
      3738 MEMB     30       23SM     C12S     CTL2    -0.180000       12.0110           0
      3739 MEMB     30       23SM     H12S     HAL2     0.900000E-01   1.00800           0
      3740 MEMB     30       23SM     H12T     HAL2     0.900000E-01   1.00800           0
      3741 MEMB     30       23SM     C13S     CTL2    -0.180000       12.0110           0
      3742 MEMB     30       23SM     H13S     HAL2     0.900000E-01   1.00800           0
      3743 MEMB     30       23SM     H13T     HAL2     0.900000E-01   1.00800           0
      3744 MEMB     30       23SM     C14S     CTL2    -0.180000       12.0110           0
      3745 MEMB     30       23SM     H14S     HAL2     0.900000E-01   1.00800           0
      3746 MEMB     30       23SM     H14T     HAL2     0.900000E-01   1.00800           0
      3747 MEMB     30       23SM     C15S     CTL2    -0.180000       12.0110           0
      3748 MEMB     30       23SM     H15S     HAL2     0.900000E-01   1.00800           0
      3749 MEMB     30       23SM     H15T     HAL2     0.900000E-01   1.00800           0
      3750 MEMB     30       23SM     C16S     CTL2    -0.180000       12.0110           0
      3751 MEMB     30       23SM     H16S     HAL2     0.900000E-01   1.00800           0
      3752 MEMB     30       23SM     H16T     HAL2     0.900000E-01   1.00800           0
      3753 MEMB     30       23SM     C17S     CTL2    -0.180000       12.0110           0
      3754 MEMB     30       23SM     H17S     HAL2     0.900000E-01   1.00800           0
      3755 MEMB     30       23SM     H17T     HAL2     0.900000E-01   1.00800           0
      3756 MEMB     30       23SM     C18S     CTL3    -0.270000       12.0110           0
      3757 MEMB     30       23SM     H18S     HAL3     0.900000E-01   1.00800           0
      3758 MEMB     30       23SM     H18T     HAL3     0.900000E-01   1.00800           0
      3759 MEMB     30       23SM     H18U     HAL3     0.900000E-01   1.00800           0
      3760 MEMB     30       23SM     C1F      C        0.550000       12.0110           0
      3761 MEMB     30       23SM     OF       O       -0.600000       15.9994           0
      3762 MEMB     30       23SM     C2F      CTL2    -0.700000E-01   12.0110           0
      3763 MEMB     30       23SM     H2F      HAL2     0.600000E-01   1.00800           0
      3764 MEMB     30       23SM     H2G      HAL2     0.600000E-01   1.00800           0
      3765 MEMB     30       23SM     C3F      CTL2    -0.180000       12.0110           0
      3766 MEMB     30       23SM     H3F      HAL2     0.900000E-01   1.00800           0
      3767 MEMB     30       23SM     H3G      HAL2     0.900000E-01   1.00800           0
      3768 MEMB     30       23SM     C4F      CTL2    -0.180000       12.0110           0
      3769 MEMB     30       23SM     H4F      HAL2     0.900000E-01   1.00800           0
      3770 MEMB     30       23SM     H4G      HAL2     0.900000E-01   1.00800           0
      3771 MEMB     30       23SM     C5F      CTL2    -0.180000       12.0110           0
      3772 MEMB     30       23SM     H5F      HAL2     0.900000E-01   1.00800           0
      3773 MEMB     30       23SM     H5G      HAL2     0.900000E-01   1.00800           0
      3774 MEMB     30       23SM     C6F      CTL2    -0.180000       12.0110           0
      3775 MEMB     30       23SM     H6F      HAL2     0.900000E-01   1.00800           0
      3776 MEMB     30       23SM     H6G      HAL2     0.900000E-01   1.00800           0
      3777 MEMB     30       23SM     C7F      CTL2    -0.180000       12.0110           0
      3778 MEMB     30       23SM     H7F      HAL2     0.900000E-01   1.00800           0
      3779 MEMB     30       23SM     H7G      HAL2     0.900000E-01   1.00800           0
      3780 MEMB     30       23SM     C8F      CTL2    -0.180000       12.0110           0
      3781 MEMB     30       23SM     H8F      HAL2     0.900000E-01   1.00800           0
      3782 MEMB     30       23SM     H8G      HAL2     0.900000E-01   1.00800           0
      3783 MEMB     30       23SM     C9F      CTL2    -0.180000       12.0110           0
      3784 MEMB     30       23SM     H9F      HAL2     0.900000E-01   1.00800           0
      3785 MEMB     30       23SM     H9G      HAL2     0.900000E-01   1.00800           0
      3786 MEMB     30       23SM     C10F     CTL2    -0.180000       12.0110           0
      3787 MEMB     30       23SM     H10F     HAL2     0.900000E-01   1.00800           0
      3788 MEMB     30       23SM     H10G     HAL2     0.900000E-01   1.00800           0
      3789 MEMB     30       23SM     C11F     CTL2    -0.180000       12.0110           0
      3790 MEMB     30       23SM     H11F     HAL2     0.900000E-01   1.00800           0
      3791 MEMB     30       23SM     H11G     HAL2     0.900000E-01   1.00800           0
      3792 MEMB     30       23SM     C12F     CTL2    -0.180000       12.0110           0
      3793 MEMB     30       23SM     H12F     HAL2     0.900000E-01   1.00800           0
      3794 MEMB     30       23SM     H12G     HAL2     0.900000E-01   1.00800           0
      3795 MEMB     30       23SM     C13F     CTL2    -0.180000       12.0110           0
      3796 MEMB     30       23SM     H13F     HAL2     0.900000E-01   1.00800           0
      3797 MEMB     30       23SM     H13G     HAL2     0.900000E-01   1.00800           0
      3798 MEMB     30       23SM     C14F     CTL2    -0.180000       12.0110           0
      3799 MEMB     30       23SM     H14F     HAL2     0.900000E-01   1.00800           0
      3800 MEMB     30       23SM     H14G     HAL2     0.900000E-01   1.00800           0
      3801 MEMB     30       23SM     C15F     CTL2    -0.180000       12.0110           0
      3802 MEMB     30       23SM     H15F     HAL2     0.900000E-01   1.00800           0
      3803 MEMB     30       23SM     H15G     HAL2     0.900000E-01   1.00800           0
      3804 MEMB     30       23SM     C16F     CTL2    -0.180000       12.0110           0
      3805 MEMB     30       23SM     H16F     HAL2     0.900000E-01   1.00800           0
      3806 MEMB     30       23SM     H16G     HAL2     0.900000E-01   1.00800           0
      3807 MEMB     30       23SM     C17F     CTL2    -0.180000       12.0110           0
      3808 MEMB     30       23SM     H17F     HAL2     0.900000E-01   1.00800           0
      3809 MEMB     30       23SM     H17G     HAL2     0.900000E-01   1.00800           0
      3810 MEMB     30       23SM     C18F     CTL2    -0.180000       12.0110           0
      3811 MEMB     30       23SM     H18F     HAL2     0.900000E-01   1.00800           0
      3812 MEMB     30       23SM     H18G     HAL2     0.900000E-01   1.00800           0
      3813 MEMB     30       23SM     C19F     CTL2    -0.180000       12.0110           0
      3814 MEMB     30       23SM     H19F     HAL2     0.900000E-01   1.00800           0
      3815 MEMB     30       23SM     H19G     HAL2     0.900000E-01   1.00800           0
      3816 MEMB     30       23SM     C20F     CTL2    -0.180000       12.0110           0
      3817 MEMB     30       23SM     H20F     HAL2     0.900000E-01   1.00800           0
      3818 MEMB     30       23SM     H20G     HAL2     0.900000E-01   1.00800           0
      3819 MEMB     30       23SM     C21F     CTL2    -0.180000       12.0110           0
      3820 MEMB     30       23SM     H21F     HAL2     0.900000E-01   1.00800           0
      3821 MEMB     30       23SM     H21G     HAL2     0.900000E-01   1.00800           0
      3822 MEMB     30       23SM     C22F     CTL2    -0.180000       12.0110           0
      3823 MEMB     30       23SM     H22F     HAL2     0.900000E-01   1.00800           0
      3824 MEMB     30       23SM     H22G     HAL2     0.900000E-01   1.00800           0
      3825 MEMB     30       23SM     C23F     CTL3    -0.270000       12.0110           0
      3826 MEMB     30       23SM     H23F     HAL3     0.900000E-01   1.00800           0
      3827 MEMB     30       23SM     H23G     HAL3     0.900000E-01   1.00800           0
      3828 MEMB     30       23SM     H23H     HAL3     0.900000E-01   1.00800           0
      3829 MEMB     31       23SM     N        NTL     -0.600000       14.0070           0
      3830 MEMB     31       23SM     C15      CTL5    -0.350000       12.0110           0
      3831 MEMB     31       23SM     H15A     HL       0.250000       1.00800           0
      3832 MEMB     31       23SM     H15B     HL       0.250000       1.00800           0
      3833 MEMB     31       23SM     H15C     HL       0.250000       1.00800           0
      3834 MEMB     31       23SM     C14      CTL5    -0.350000       12.0110           0
      3835 MEMB     31       23SM     H14A     HL       0.250000       1.00800           0
      3836 MEMB     31       23SM     H14B     HL       0.250000       1.00800           0
      3837 MEMB     31       23SM     H14C     HL       0.250000       1.00800           0
      3838 MEMB     31       23SM     C13      CTL5    -0.350000       12.0110           0
      3839 MEMB     31       23SM     H13A     HL       0.250000       1.00800           0
      3840 MEMB     31       23SM     H13B     HL       0.250000       1.00800           0
      3841 MEMB     31       23SM     H13C     HL       0.250000       1.00800           0
      3842 MEMB     31       23SM     C12      CTL2    -0.100000       12.0110           0
      3843 MEMB     31       23SM     H12A     HL       0.250000       1.00800           0
      3844 MEMB     31       23SM     H12B     HL       0.250000       1.00800           0
      3845 MEMB     31       23SM     C11      CTL2    -0.800000E-01   12.0110           0
      3846 MEMB     31       23SM     H11A     HAL2     0.900000E-01   1.00800           0
      3847 MEMB     31       23SM     H11B     HAL2     0.900000E-01   1.00800           0
      3848 MEMB     31       23SM     P        PL        1.50000       30.9740           0
      3849 MEMB     31       23SM     O13      O2L     -0.780000       15.9994           0
      3850 MEMB     31       23SM     O14      O2L     -0.780000       15.9994           0
      3851 MEMB     31       23SM     O11      OSLP    -0.570000       15.9994           0
      3852 MEMB     31       23SM     O12      OSLP    -0.570000       15.9994           0
      3853 MEMB     31       23SM     C1S      CTL2    -0.800000E-01   12.0110           0
      3854 MEMB     31       23SM     H1S      HAL2     0.900000E-01   1.00800           0
      3855 MEMB     31       23SM     H1T      HAL2     0.900000E-01   1.00800           0
      3856 MEMB     31       23SM     NF       NHL     -0.700000       14.0070           0
      3857 MEMB     31       23SM     HNF      H        0.350000       1.00800           0
      3858 MEMB     31       23SM     C2S      CTL1     0.300000       12.0110           0
      3859 MEMB     31       23SM     H2S      HAL1     0.500000E-01   1.00800           0
      3860 MEMB     31       23SM     C3S      CTO1     0.500000       12.0110           0
      3861 MEMB     31       23SM     H3S      HAL1    -0.110000       1.00800           0
      3862 MEMB     31       23SM     O3       OHL     -0.690000       15.9994           0
      3863 MEMB     31       23SM     HO3      HOL      0.300000       1.00800           0
      3864 MEMB     31       23SM     C4S      CEL3    -0.150000       12.0110           0
      3865 MEMB     31       23SM     H4S      HEL1     0.150000       1.00800           0
      3866 MEMB     31       23SM     C5S      CEL3    -0.150000       12.0110           0
      3867 MEMB     31       23SM     H5S      HEL1     0.150000       1.00800           0
      3868 MEMB     31       23SM     C6S      CTL2    -0.180000       12.0110           0
      3869 MEMB     31       23SM     H6S      HAL2     0.900000E-01   1.00800           0
      3870 MEMB     31       23SM     H6T      HAL2     0.900000E-01   1.00800           0
      3871 MEMB     31       23SM     C7S      CTL2    -0.180000       12.0110           0
      3872 MEMB     31       23SM     H7S      HAL2     0.900000E-01   1.00800           0
      3873 MEMB     31       23SM     H7T      HAL2     0.900000E-01   1.00800           0
      3874 MEMB     31       23SM     C8S      CTL2    -0.180000       12.0110           0
      3875 MEMB     31       23SM     H8S      HAL2     0.900000E-01   1.00800           0
      3876 MEMB     31       23SM     H8T      HAL2     0.900000E-01   1.00800           0
      3877 MEMB     31       23SM     C9S      CTL2    -0.180000       12.0110           0
      3878 MEMB     31       23SM     H9S      HAL2     0.900000E-01   1.00800           0
      3879 MEMB     31       23SM     H9T      HAL2     0.900000E-01   1.00800           0
      3880 MEMB     31       23SM     C10S     CTL2    -0.180000       12.0110           0
      3881 MEMB     31       23SM     H10S     HAL2     0.900000E-01   1.00800           0
      3882 MEMB     31       23SM     H10T     HAL2     0.900000E-01   1.00800           0
      3883 MEMB     31       23SM     C11S     CTL2    -0.180000       12.0110           0
      3884 MEMB     31       23SM     H11S     HAL2     0.900000E-01   1.00800           0
      3885 MEMB     31       23SM     H11T     HAL2     0.900000E-01   1.00800           0
      3886 MEMB     31       23SM     C12S     CTL2    -0.180000       12.0110           0
      3887 MEMB     31       23SM     H12S     HAL2     0.900000E-01   1.00800           0
      3888 MEMB     31       23SM     H12T     HAL2     0.900000E-01   1.00800           0
      3889 MEMB     31       23SM     C13S     CTL2    -0.180000       12.0110           0
      3890 MEMB     31       23SM     H13S     HAL2     0.900000E-01   1.00800           0
      3891 MEMB     31       23SM     H13T     HAL2     0.900000E-01   1.00800           0
      3892 MEMB     31       23SM     C14S     CTL2    -0.180000       12.0110           0
      3893 MEMB     31       23SM     H14S     HAL2     0.900000E-01   1.00800           0
      3894 MEMB     31       23SM     H14T     HAL2     0.900000E-01   1.00800           0
      3895 MEMB     31       23SM     C15S     CTL2    -0.180000       12.0110           0
      3896 MEMB     31       23SM     H15S     HAL2     0.900000E-01   1.00800           0
      3897 MEMB     31       23SM     H15T     HAL2     0.900000E-01   1.00800           0
      3898 MEMB     31       23SM     C16S     CTL2    -0.180000       12.0110           0
      3899 MEMB     31       23SM     H16S     HAL2     0.900000E-01   1.00800           0
      3900 MEMB     31       23SM     H16T     HAL2     0.900000E-01   1.00800           0
      3901 MEMB     31       23SM     C17S     CTL2    -0.180000       12.0110           0
      3902 MEMB     31       23SM     H17S     HAL2     0.900000E-01   1.00800           0
      3903 MEMB     31       23SM     H17T     HAL2     0.900000E-01   1.00800           0
      3904 MEMB     31       23SM     C18S     CTL3    -0.270000       12.0110           0
      3905 MEMB     31       23SM     H18S     HAL3     0.900000E-01   1.00800           0
      3906 MEMB     31       23SM     H18T     HAL3     0.900000E-01   1.00800           0
      3907 MEMB     31       23SM     H18U     HAL3     0.900000E-01   1.00800           0
      3908 MEMB     31       23SM     C1F      C        0.550000       12.0110           0
      3909 MEMB     31       23SM     OF       O       -0.600000       15.9994           0
      3910 MEMB     31       23SM     C2F      CTL2    -0.700000E-01   12.0110           0
      3911 MEMB     31       23SM     H2F      HAL2     0.600000E-01   1.00800           0
      3912 MEMB     31       23SM     H2G      HAL2     0.600000E-01   1.00800           0
      3913 MEMB     31       23SM     C3F      CTL2    -0.180000       12.0110           0
      3914 MEMB     31       23SM     H3F      HAL2     0.900000E-01   1.00800           0
      3915 MEMB     31       23SM     H3G      HAL2     0.900000E-01   1.00800           0
      3916 MEMB     31       23SM     C4F      CTL2    -0.180000       12.0110           0
      3917 MEMB     31       23SM     H4F      HAL2     0.900000E-01   1.00800           0
      3918 MEMB     31       23SM     H4G      HAL2     0.900000E-01   1.00800           0
      3919 MEMB     31       23SM     C5F      CTL2    -0.180000       12.0110           0
      3920 MEMB     31       23SM     H5F      HAL2     0.900000E-01   1.00800           0
      3921 MEMB     31       23SM     H5G      HAL2     0.900000E-01   1.00800           0
      3922 MEMB     31       23SM     C6F      CTL2    -0.180000       12.0110           0
      3923 MEMB     31       23SM     H6F      HAL2     0.900000E-01   1.00800           0
      3924 MEMB     31       23SM     H6G      HAL2     0.900000E-01   1.00800           0
      3925 MEMB     31       23SM     C7F      CTL2    -0.180000       12.0110           0
      3926 MEMB     31       23SM     H7F      HAL2     0.900000E-01   1.00800           0
      3927 MEMB     31       23SM     H7G      HAL2     0.900000E-01   1.00800           0
      3928 MEMB     31       23SM     C8F      CTL2    -0.180000       12.0110           0
      3929 MEMB     31       23SM     H8F      HAL2     0.900000E-01   1.00800           0
      3930 MEMB     31       23SM     H8G      HAL2     0.900000E-01   1.00800           0
      3931 MEMB     31       23SM     C9F      CTL2    -0.180000       12.0110           0
      3932 MEMB     31       23SM     H9F      HAL2     0.900000E-01   1.00800           0
      3933 MEMB     31       23SM     H9G      HAL2     0.900000E-01   1.00800           0
      3934 MEMB     31       23SM     C10F     CTL2    -0.180000       12.0110           0
      3935 MEMB     31       23SM     H10F     HAL2     0.900000E-01   1.00800           0
      3936 MEMB     31       23SM     H10G     HAL2     0.900000E-01   1.00800           0
      3937 MEMB     31       23SM     C11F     CTL2    -0.180000       12.0110           0
      3938 MEMB     31       23SM     H11F     HAL2     0.900000E-01   1.00800           0
      3939 MEMB     31       23SM     H11G     HAL2     0.900000E-01   1.00800           0
      3940 MEMB     31       23SM     C12F     CTL2    -0.180000       12.0110           0
      3941 MEMB     31       23SM     H12F     HAL2     0.900000E-01   1.00800           0
      3942 MEMB     31       23SM     H12G     HAL2     0.900000E-01   1.00800           0
      3943 MEMB     31       23SM     C13F     CTL2    -0.180000       12.0110           0
      3944 MEMB     31       23SM     H13F     HAL2     0.900000E-01   1.00800           0
      3945 MEMB     31       23SM     H13G     HAL2     0.900000E-01   1.00800           0
      3946 MEMB     31       23SM     C14F     CTL2    -0.180000       12.0110           0
      3947 MEMB     31       23SM     H14F     HAL2     0.900000E-01   1.00800           0
      3948 MEMB     31       23SM     H14G     HAL2     0.900000E-01   1.00800           0
      3949 MEMB     31       23SM     C15F     CTL2    -0.180000       12.0110           0
      3950 MEMB     31       23SM     H15F     HAL2     0.900000E-01   1.00800           0
      3951 MEMB     31       23SM     H15G     HAL2     0.900000E-01   1.00800           0
      3952 MEMB     31       23SM     C16F     CTL2    -0.180000       12.0110           0
      3953 MEMB     31       23SM     H16F     HAL2     0.900000E-01   1.00800           0
      3954 MEMB     31       23SM     H16G     HAL2     0.900000E-01   1.00800           0
      3955 MEMB     31       23SM     C17F     CTL2    -0.180000       12.0110           0
      3956 MEMB     31       23SM     H17F     HAL2     0.900000E-01   1.00800           0
      3957 MEMB     31       23SM     H17G     HAL2     0.900000E-01   1.00800           0
      3958 MEMB     31       23SM     C18F     CTL2    -0.180000       12.0110           0
      3959 MEMB     31       23SM     H18F     HAL2     0.900000E-01   1.00800           0
      3960 MEMB     31       23SM     H18G     HAL2     0.900000E-01   1.00800           0
      3961 MEMB     31       23SM     C19F     CTL2    -0.180000       12.0110           0
      3962 MEMB     31       23SM     H19F     HAL2     0.900000E-01   1.00800           0
      3963 MEMB     31       23SM     H19G     HAL2     0.900000E-01   1.00800           0
      3964 MEMB     31       23SM     C20F     CTL2    -0.180000       12.0110           0
      3965 MEMB     31       23SM     H20F     HAL2     0.900000E-01   1.00800           0
      3966 MEMB     31       23SM     H20G     HAL2     0.900000E-01   1.00800           0
      3967 MEMB     31       23SM     C21F     CTL2    -0.180000       12.0110           0
      3968 MEMB     31       23SM     H21F     HAL2     0.900000E-01   1.00800           0
      3969 MEMB     31       23SM     H21G     HAL2     0.900000E-01   1.00800           0
      3970 MEMB     31       23SM     C22F     CTL2    -0.180000       12.0110           0
      3971 MEMB     31       23SM     H22F     HAL2     0.900000E-01   1.00800           0
      3972 MEMB     31       23SM     H22G     HAL2     0.900000E-01   1.00800           0
      3973 MEMB     31       23SM     C23F     CTL3    -0.270000       12.0110           0
      3974 MEMB     31       23SM     H23F     HAL3     0.900000E-01   1.00800           0
      3975 MEMB     31       23SM     H23G     HAL3     0.900000E-01   1.00800           0
      3976 MEMB     31       23SM     H23H     HAL3     0.900000E-01   1.00800           0
      3977 MEMB     32       CHL1     C3       CRL1     0.140000       12.0110           0
      3978 MEMB     32       CHL1     H3       HGA1     0.900000E-01   1.00800           0
      3979 MEMB     32       CHL1     O3       OHL     -0.660000       15.9994           0
      3980 MEMB     32       CHL1     H3'      HOL      0.430000       1.00800           0
      3981 MEMB     32       CHL1     C4       CRL2    -0.180000       12.0110           0
      3982 MEMB     32       CHL1     H4A      HGA2     0.900000E-01   1.00800           0
      3983 MEMB     32       CHL1     H4B      HGA2     0.900000E-01   1.00800           0
      3984 MEMB     32       CHL1     C5       CEL1      0.00000       12.0110           0
      3985 MEMB     32       CHL1     C6       CEL1    -0.150000       12.0110           0
      3986 MEMB     32       CHL1     H6       HEL1     0.150000       1.00800           0
      3987 MEMB     32       CHL1     C7       CRL2    -0.180000       12.0110           0
      3988 MEMB     32       CHL1     H7A      HGA2     0.900000E-01   1.00800           0
      3989 MEMB     32       CHL1     H7B      HGA2     0.900000E-01   1.00800           0
      3990 MEMB     32       CHL1     C8       CRL1    -0.900000E-01   12.0110           0
      3991 MEMB     32       CHL1     H8       HGA1     0.900000E-01   1.00800           0
      3992 MEMB     32       CHL1     C14      CRL1    -0.900000E-01   12.0110           0
      3993 MEMB     32       CHL1     H14      HGA1     0.900000E-01   1.00800           0
      3994 MEMB     32       CHL1     C15      CRL2    -0.180000       12.0110           0
      3995 MEMB     32       CHL1     H15A     HGA2     0.900000E-01   1.00800           0
      3996 MEMB     32       CHL1     H15B     HGA2     0.900000E-01   1.00800           0
      3997 MEMB     32       CHL1     C16      CRL2    -0.180000       12.0110           0
      3998 MEMB     32       CHL1     H16A     HGA2     0.900000E-01   1.00800           0
      3999 MEMB     32       CHL1     H16B     HGA2     0.900000E-01   1.00800           0
      4000 MEMB     32       CHL1     C17      CRL1    -0.900000E-01   12.0110           0
      4001 MEMB     32       CHL1     H17      HGA1     0.900000E-01   1.00800           0
      4002 MEMB     32       CHL1     C13      CRL1      0.00000       12.0110           0
      4003 MEMB     32       CHL1     C18      CTL3    -0.270000       12.0110           0
      4004 MEMB     32       CHL1     H18A     HAL3     0.900000E-01   1.00800           0
      4005 MEMB     32       CHL1     H18B     HAL3     0.900000E-01   1.00800           0
      4006 MEMB     32       CHL1     H18C     HAL3     0.900000E-01   1.00800           0
      4007 MEMB     32       CHL1     C12      CRL2    -0.180000       12.0110           0
      4008 MEMB     32       CHL1     H12A     HGA2     0.900000E-01   1.00800           0
      4009 MEMB     32       CHL1     H12B     HGA2     0.900000E-01   1.00800           0
      4010 MEMB     32       CHL1     C11      CRL2    -0.180000       12.0110           0
      4011 MEMB     32       CHL1     H11A     HGA2     0.900000E-01   1.00800           0
      4012 MEMB     32       CHL1     H11B     HGA2     0.900000E-01   1.00800           0
      4013 MEMB     32       CHL1     C9       CRL1    -0.900000E-01   12.0110           0
      4014 MEMB     32       CHL1     H9       HGA1     0.900000E-01   1.00800           0
      4015 MEMB     32       CHL1     C10      CRL1      0.00000       12.0110           0
      4016 MEMB     32       CHL1     C19      CTL3    -0.270000       12.0110           0
      4017 MEMB     32       CHL1     H19A     HAL3     0.900000E-01   1.00800           0
      4018 MEMB     32       CHL1     H19B     HAL3     0.900000E-01   1.00800           0
      4019 MEMB     32       CHL1     H19C     HAL3     0.900000E-01   1.00800           0
      4020 MEMB     32       CHL1     C1       CRL2    -0.180000       12.0110           0
      4021 MEMB     32       CHL1     H1A      HGA2     0.900000E-01   1.00800           0
      4022 MEMB     32       CHL1     H1B      HGA2     0.900000E-01   1.00800           0
      4023 MEMB     32       CHL1     C2       CRL2    -0.180000       12.0110           0
      4024 MEMB     32       CHL1     H2A      HGA2     0.900000E-01   1.00800           0
      4025 MEMB     32       CHL1     H2B      HGA2     0.900000E-01   1.00800           0
      4026 MEMB     32       CHL1     C20      CTL1    -0.900000E-01   12.0110           0
      4027 MEMB     32       CHL1     H20      HAL1     0.900000E-01   1.00800           0
      4028 MEMB     32       CHL1     C21      CTL3    -0.270000       12.0110           0
      4029 MEMB     32       CHL1     H21A     HAL3     0.900000E-01   1.00800           0
      4030 MEMB     32       CHL1     H21B     HAL3     0.900000E-01   1.00800           0
      4031 MEMB     32       CHL1     H21C     HAL3     0.900000E-01   1.00800           0
      4032 MEMB     32       CHL1     C22      CTL2    -0.180000       12.0110           0
      4033 MEMB     32       CHL1     H22A     HAL2     0.900000E-01   1.00800           0
      4034 MEMB     32       CHL1     H22B     HAL2     0.900000E-01   1.00800           0
      4035 MEMB     32       CHL1     C23      CTL2    -0.180000       12.0110           0
      4036 MEMB     32       CHL1     H23A     HAL2     0.900000E-01   1.00800           0
      4037 MEMB     32       CHL1     H23B     HAL2     0.900000E-01   1.00800           0
      4038 MEMB     32       CHL1     C24      CTL2    -0.180000       12.0110           0
      4039 MEMB     32       CHL1     H24A     HAL2     0.900000E-01   1.00800           0
      4040 MEMB     32       CHL1     H24B     HAL2     0.900000E-01   1.00800           0
      4041 MEMB     32       CHL1     C25      CTL1    -0.900000E-01   12.0110           0
      4042 MEMB     32       CHL1     H25      HAL1     0.900000E-01   1.00800           0
      4043 MEMB     32       CHL1     C26      CTL3    -0.270000       12.0110           0
      4044 MEMB     32       CHL1     H26A     HAL3     0.900000E-01   1.00800           0
      4045 MEMB     32       CHL1     H26B     HAL3     0.900000E-01   1.00800           0
      4046 MEMB     32       CHL1     H26C     HAL3     0.900000E-01   1.00800           0
      4047 MEMB     32       CHL1     C27      CTL3    -0.270000       12.0110           0
      4048 MEMB     32       CHL1     H27A     HAL3     0.900000E-01   1.00800           0
      4049 MEMB     32       CHL1     H27B     HAL3     0.900000E-01   1.00800           0
      4050 MEMB     32       CHL1     H27C     HAL3     0.900000E-01   1.00800           0
      4051 MEMB     33       23SM     N        NTL     -0.600000       14.0070           0
      4052 MEMB     33       23SM     C15      CTL5    -0.350000       12.0110           0
      4053 MEMB     33       23SM     H15A     HL       0.250000       1.00800           0
      4054 MEMB     33       23SM     H15B     HL       0.250000       1.00800           0
      4055 MEMB     33       23SM     H15C     HL       0.250000       1.00800           0
      4056 MEMB     33       23SM     C14      CTL5    -0.350000       12.0110           0
      4057 MEMB     33       23SM     H14A     HL       0.250000       1.00800           0
      4058 MEMB     33       23SM     H14B     HL       0.250000       1.00800           0
      4059 MEMB     33       23SM     H14C     HL       0.250000       1.00800           0
      4060 MEMB     33       23SM     C13      CTL5    -0.350000       12.0110           0
      4061 MEMB     33       23SM     H13A     HL       0.250000       1.00800           0
      4062 MEMB     33       23SM     H13B     HL       0.250000       1.00800           0
      4063 MEMB     33       23SM     H13C     HL       0.250000       1.00800           0
      4064 MEMB     33       23SM     C12      CTL2    -0.100000       12.0110           0
      4065 MEMB     33       23SM     H12A     HL       0.250000       1.00800           0
      4066 MEMB     33       23SM     H12B     HL       0.250000       1.00800           0
      4067 MEMB     33       23SM     C11      CTL2    -0.800000E-01   12.0110           0
      4068 MEMB     33       23SM     H11A     HAL2     0.900000E-01   1.00800           0
      4069 MEMB     33       23SM     H11B     HAL2     0.900000E-01   1.00800           0
      4070 MEMB     33       23SM     P        PL        1.50000       30.9740           0
      4071 MEMB     33       23SM     O13      O2L     -0.780000       15.9994           0
      4072 MEMB     33       23SM     O14      O2L     -0.780000       15.9994           0
      4073 MEMB     33       23SM     O11      OSLP    -0.570000       15.9994           0
      4074 MEMB     33       23SM     O12      OSLP    -0.570000       15.9994           0
      4075 MEMB     33       23SM     C1S      CTL2    -0.800000E-01   12.0110           0
      4076 MEMB     33       23SM     H1S      HAL2     0.900000E-01   1.00800           0
      4077 MEMB     33       23SM     H1T      HAL2     0.900000E-01   1.00800           0
      4078 MEMB     33       23SM     NF       NHL     -0.700000       14.0070           0
      4079 MEMB     33       23SM     HNF      H        0.350000       1.00800           0
      4080 MEMB     33       23SM     C2S      CTL1     0.300000       12.0110           0
      4081 MEMB     33       23SM     H2S      HAL1     0.500000E-01   1.00800           0
      4082 MEMB     33       23SM     C3S      CTO1     0.500000       12.0110           0
      4083 MEMB     33       23SM     H3S      HAL1    -0.110000       1.00800           0
      4084 MEMB     33       23SM     O3       OHL     -0.690000       15.9994           0
      4085 MEMB     33       23SM     HO3      HOL      0.300000       1.00800           0
      4086 MEMB     33       23SM     C4S      CEL3    -0.150000       12.0110           0
      4087 MEMB     33       23SM     H4S      HEL1     0.150000       1.00800           0
      4088 MEMB     33       23SM     C5S      CEL3    -0.150000       12.0110           0
      4089 MEMB     33       23SM     H5S      HEL1     0.150000       1.00800           0
      4090 MEMB     33       23SM     C6S      CTL2    -0.180000       12.0110           0
      4091 MEMB     33       23SM     H6S      HAL2     0.900000E-01   1.00800           0
      4092 MEMB     33       23SM     H6T      HAL2     0.900000E-01   1.00800           0
      4093 MEMB     33       23SM     C7S      CTL2    -0.180000       12.0110           0
      4094 MEMB     33       23SM     H7S      HAL2     0.900000E-01   1.00800           0
      4095 MEMB     33       23SM     H7T      HAL2     0.900000E-01   1.00800           0
      4096 MEMB     33       23SM     C8S      CTL2    -0.180000       12.0110           0
      4097 MEMB     33       23SM     H8S      HAL2     0.900000E-01   1.00800           0
      4098 MEMB     33       23SM     H8T      HAL2     0.900000E-01   1.00800           0
      4099 MEMB     33       23SM     C9S      CTL2    -0.180000       12.0110           0
      4100 MEMB     33       23SM     H9S      HAL2     0.900000E-01   1.00800           0
      4101 MEMB     33       23SM     H9T      HAL2     0.900000E-01   1.00800           0
      4102 MEMB     33       23SM     C10S     CTL2    -0.180000       12.0110           0
      4103 MEMB     33       23SM     H10S     HAL2     0.900000E-01   1.00800           0
      4104 MEMB     33       23SM     H10T     HAL2     0.900000E-01   1.00800           0
      4105 MEMB     33       23SM     C11S     CTL2    -0.180000       12.0110           0
      4106 MEMB     33       23SM     H11S     HAL2     0.900000E-01   1.00800           0
      4107 MEMB     33       23SM     H11T     HAL2     0.900000E-01   1.00800           0
      4108 MEMB     33       23SM     C12S     CTL2    -0.180000       12.0110           0
      4109 MEMB     33       23SM     H12S     HAL2     0.900000E-01   1.00800           0
      4110 MEMB     33       23SM     H12T     HAL2     0.900000E-01   1.00800           0
      4111 MEMB     33       23SM     C13S     CTL2    -0.180000       12.0110           0
      4112 MEMB     33       23SM     H13S     HAL2     0.900000E-01   1.00800           0
      4113 MEMB     33       23SM     H13T     HAL2     0.900000E-01   1.00800           0
      4114 MEMB     33       23SM     C14S     CTL2    -0.180000       12.0110           0
      4115 MEMB     33       23SM     H14S     HAL2     0.900000E-01   1.00800           0
      4116 MEMB     33       23SM     H14T     HAL2     0.900000E-01   1.00800           0
      4117 MEMB     33       23SM     C15S     CTL2    -0.180000       12.0110           0
      4118 MEMB     33       23SM     H15S     HAL2     0.900000E-01   1.00800           0
      4119 MEMB     33       23SM     H15T     HAL2     0.900000E-01   1.00800           0
      4120 MEMB     33       23SM     C16S     CTL2    -0.180000       12.0110           0
      4121 MEMB     33       23SM     H16S     HAL2     0.900000E-01   1.00800           0
      4122 MEMB     33       23SM     H16T     HAL2     0.900000E-01   1.00800           0
      4123 MEMB     33       23SM     C17S     CTL2    -0.180000       12.0110           0
      4124 MEMB     33       23SM     H17S     HAL2     0.900000E-01   1.00800           0
      4125 MEMB     33       23SM     H17T     HAL2     0.900000E-01   1.00800           0
      4126 MEMB     33       23SM     C18S     CTL3    -0.270000       12.0110           0
      4127 MEMB     33       23SM     H18S     HAL3     0.900000E-01   1.00800           0
      4128 MEMB     33       23SM     H18T     HAL3     0.900000E-01   1.00800           0
      4129 MEMB     33       23SM     H18U     HAL3     0.900000E-01   1.00800           0
      4130 MEMB     33       23SM     C1F      C        0.550000       12.0110           0
      4131 MEMB     33       23SM     OF       O       -0.600000       15.9994           0
      4132 MEMB     33       23SM     C2F      CTL2    -0.700000E-01   12.0110           0
      4133 MEMB     33       23SM     H2F      HAL2     0.600000E-01   1.00800           0
      4134 MEMB     33       23SM     H2G      HAL2     0.600000E-01   1.00800           0
      4135 MEMB     33       23SM     C3F      CTL2    -0.180000       12.0110           0
      4136 MEMB     33       23SM     H3F      HAL2     0.900000E-01   1.00800           0
      4137 MEMB     33       23SM     H3G      HAL2     0.900000E-01   1.00800           0
      4138 MEMB     33       23SM     C4F      CTL2    -0.180000       12.0110           0
      4139 MEMB     33       23SM     H4F      HAL2     0.900000E-01   1.00800           0
      4140 MEMB     33       23SM     H4G      HAL2     0.900000E-01   1.00800           0
      4141 MEMB     33       23SM     C5F      CTL2    -0.180000       12.0110           0
      4142 MEMB     33       23SM     H5F      HAL2     0.900000E-01   1.00800           0
      4143 MEMB     33       23SM     H5G      HAL2     0.900000E-01   1.00800           0
      4144 MEMB     33       23SM     C6F      CTL2    -0.180000       12.0110           0
      4145 MEMB     33       23SM     H6F      HAL2     0.900000E-01   1.00800           0
      4146 MEMB     33       23SM     H6G      HAL2     0.900000E-01   1.00800           0
      4147 MEMB     33       23SM     C7F      CTL2    -0.180000       12.0110           0
      4148 MEMB     33       23SM     H7F      HAL2     0.900000E-01   1.00800           0
      4149 MEMB     33       23SM     H7G      HAL2     0.900000E-01   1.00800           0
      4150 MEMB     33       23SM     C8F      CTL2    -0.180000       12.0110           0
      4151 MEMB     33       23SM     H8F      HAL2     0.900000E-01   1.00800           0
      4152 MEMB     33       23SM     H8G      HAL2     0.900000E-01   1.00800           0
      4153 MEMB     33       23SM     C9F      CTL2    -0.180000       12.0110           0
      4154 MEMB     33       23SM     H9F      HAL2     0.900000E-01   1.00800           0
      4155 MEMB     33       23SM     H9G      HAL2     0.900000E-01   1.00800           0
      4156 MEMB     33       23SM     C10F     CTL2    -0.180000       12.0110           0
      4157 MEMB     33       23SM     H10F     HAL2     0.900000E-01   1.00800           0
      4158 MEMB     33       23SM     H10G     HAL2     0.900000E-01   1.00800           0
      4159 MEMB     33       23SM     C11F     CTL2    -0.180000       12.0110           0
      4160 MEMB     33       23SM     H11F     HAL2     0.900000E-01   1.00800           0
      4161 MEMB     33       23SM     H11G     HAL2     0.900000E-01   1.00800           0
      4162 MEMB     33       23SM     C12F     CTL2    -0.180000       12.0110           0
      4163 MEMB     33       23SM     H12F     HAL2     0.900000E-01   1.00800           0
      4164 MEMB     33       23SM     H12G     HAL2     0.900000E-01   1.00800           0
      4165 MEMB     33       23SM     C13F     CTL2    -0.180000       12.0110           0
      4166 MEMB     33       23SM     H13F     HAL2     0.900000E-01   1.00800           0
      4167 MEMB     33       23SM     H13G     HAL2     0.900000E-01   1.00800           0
      4168 MEMB     33       23SM     C14F     CTL2    -0.180000       12.0110           0
      4169 MEMB     33       23SM     H14F     HAL2     0.900000E-01   1.00800           0
      4170 MEMB     33       23SM     H14G     HAL2     0.900000E-01   1.00800           0
      4171 MEMB     33       23SM     C15F     CTL2    -0.180000       12.0110           0
      4172 MEMB     33       23SM     H15F     HAL2     0.900000E-01   1.00800           0
      4173 MEMB     33       23SM     H15G     HAL2     0.900000E-01   1.00800           0
      4174 MEMB     33       23SM     C16F     CTL2    -0.180000       12.0110           0
      4175 MEMB     33       23SM     H16F     HAL2     0.900000E-01   1.00800           0
      4176 MEMB     33       23SM     H16G     HAL2     0.900000E-01   1.00800           0
      4177 MEMB     33       23SM     C17F     CTL2    -0.180000       12.0110           0
      4178 MEMB     33       23SM     H17F     HAL2     0.900000E-01   1.00800           0
      4179 MEMB     33       23SM     H17G     HAL2     0.900000E-01   1.00800           0
      4180 MEMB     33       23SM     C18F     CTL2    -0.180000       12.0110           0
      4181 MEMB     33       23SM     H18F     HAL2     0.900000E-01   1.00800           0
      4182 MEMB     33       23SM     H18G     HAL2     0.900000E-01   1.00800           0
      4183 MEMB     33       23SM     C19F     CTL2    -0.180000       12.0110           0
      4184 MEMB     33       23SM     H19F     HAL2     0.900000E-01   1.00800           0
      4185 MEMB     33       23SM     H19G     HAL2     0.900000E-01   1.00800           0
      4186 MEMB     33       23SM     C20F     CTL2    -0.180000       12.0110           0
      4187 MEMB     33       23SM     H20F     HAL2     0.900000E-01   1.00800           0
      4188 MEMB     33       23SM     H20G     HAL2     0.900000E-01   1.00800           0
      4189 MEMB     33       23SM     C21F     CTL2    -0.180000       12.0110           0
      4190 MEMB     33       23SM     H21F     HAL2     0.900000E-01   1.00800           0
      4191 MEMB     33       23SM     H21G     HAL2     0.900000E-01   1.00800           0
      4192 MEMB     33       23SM     C22F     CTL2    -0.180000       12.0110           0
      4193 MEMB     33       23SM     H22F     HAL2     0.900000E-01   1.00800           0
      4194 MEMB     33       23SM     H22G     HAL2     0.900000E-01   1.00800           0
      4195 MEMB     33       23SM     C23F     CTL3    -0.270000       12.0110           0
      4196 MEMB     33       23SM     H23F     HAL3     0.900000E-01   1.00800           0
      4197 MEMB     33       23SM     H23G     HAL3     0.900000E-01   1.00800           0
      4198 MEMB     33       23SM     H23H     HAL3     0.900000E-01   1.00800           0
      4199 MEMB     34       CHL1     C3       CRL1     0.140000       12.0110           0
      4200 MEMB     34       CHL1     H3       HGA1     0.900000E-01   1.00800           0
      4201 MEMB     34       CHL1     O3       OHL     -0.660000       15.9994           0
      4202 MEMB     34       CHL1     H3'      HOL      0.430000       1.00800           0
      4203 MEMB     34       CHL1     C4       CRL2    -0.180000       12.0110           0
      4204 MEMB     34       CHL1     H4A      HGA2     0.900000E-01   1.00800           0
      4205 MEMB     34       CHL1     H4B      HGA2     0.900000E-01   1.00800           0
      4206 MEMB     34       CHL1     C5       CEL1      0.00000       12.0110           0
      4207 MEMB     34       CHL1     C6       CEL1    -0.150000       12.0110           0
      4208 MEMB     34       CHL1     H6       HEL1     0.150000       1.00800           0
      4209 MEMB     34       CHL1     C7       CRL2    -0.180000       12.0110           0
      4210 MEMB     34       CHL1     H7A      HGA2     0.900000E-01   1.00800           0
      4211 MEMB     34       CHL1     H7B      HGA2     0.900000E-01   1.00800           0
      4212 MEMB     34       CHL1     C8       CRL1    -0.900000E-01   12.0110           0
      4213 MEMB     34       CHL1     H8       HGA1     0.900000E-01   1.00800           0
      4214 MEMB     34       CHL1     C14      CRL1    -0.900000E-01   12.0110           0
      4215 MEMB     34       CHL1     H14      HGA1     0.900000E-01   1.00800           0
      4216 MEMB     34       CHL1     C15      CRL2    -0.180000       12.0110           0
      4217 MEMB     34       CHL1     H15A     HGA2     0.900000E-01   1.00800           0
      4218 MEMB     34       CHL1     H15B     HGA2     0.900000E-01   1.00800           0
      4219 MEMB     34       CHL1     C16      CRL2    -0.180000       12.0110           0
      4220 MEMB     34       CHL1     H16A     HGA2     0.900000E-01   1.00800           0
      4221 MEMB     34       CHL1     H16B     HGA2     0.900000E-01   1.00800           0
      4222 MEMB     34       CHL1     C17      CRL1    -0.900000E-01   12.0110           0
      4223 MEMB     34       CHL1     H17      HGA1     0.900000E-01   1.00800           0
      4224 MEMB     34       CHL1     C13      CRL1      0.00000       12.0110           0
      4225 MEMB     34       CHL1     C18      CTL3    -0.270000       12.0110           0
      4226 MEMB     34       CHL1     H18A     HAL3     0.900000E-01   1.00800           0
      4227 MEMB     34       CHL1     H18B     HAL3     0.900000E-01   1.00800           0
      4228 MEMB     34       CHL1     H18C     HAL3     0.900000E-01   1.00800           0
      4229 MEMB     34       CHL1     C12      CRL2    -0.180000       12.0110           0
      4230 MEMB     34       CHL1     H12A     HGA2     0.900000E-01   1.00800           0
      4231 MEMB     34       CHL1     H12B     HGA2     0.900000E-01   1.00800           0
      4232 MEMB     34       CHL1     C11      CRL2    -0.180000       12.0110           0
      4233 MEMB     34       CHL1     H11A     HGA2     0.900000E-01   1.00800           0
      4234 MEMB     34       CHL1     H11B     HGA2     0.900000E-01   1.00800           0
      4235 MEMB     34       CHL1     C9       CRL1    -0.900000E-01   12.0110           0
      4236 MEMB     34       CHL1     H9       HGA1     0.900000E-01   1.00800           0
      4237 MEMB     34       CHL1     C10      CRL1      0.00000       12.0110           0
      4238 MEMB     34       CHL1     C19      CTL3    -0.270000       12.0110           0
      4239 MEMB     34       CHL1     H19A     HAL3     0.900000E-01   1.00800           0
      4240 MEMB     34       CHL1     H19B     HAL3     0.900000E-01   1.00800           0
      4241 MEMB     34       CHL1     H19C     HAL3     0.900000E-01   1.00800           0
      4242 MEMB     34       CHL1     C1       CRL2    -0.180000       12.0110           0
      4243 MEMB     34       CHL1     H1A      HGA2     0.900000E-01   1.00800           0
      4244 MEMB     34       CHL1     H1B      HGA2     0.900000E-01   1.00800           0
      4245 MEMB     34       CHL1     C2       CRL2    -0.180000       12.0110           0
      4246 MEMB     34       CHL1     H2A      HGA2     0.900000E-01   1.00800           0
      4247 MEMB     34       CHL1     H2B      HGA2     0.900000E-01   1.00800           0
      4248 MEMB     34       CHL1     C20      CTL1    -0.900000E-01   12.0110           0
      4249 MEMB     34       CHL1     H20      HAL1     0.900000E-01   1.00800           0
      4250 MEMB     34       CHL1     C21      CTL3    -0.270000       12.0110           0
      4251 MEMB     34       CHL1     H21A     HAL3     0.900000E-01   1.00800           0
      4252 MEMB     34       CHL1     H21B     HAL3     0.900000E-01   1.00800           0
      4253 MEMB     34       CHL1     H21C     HAL3     0.900000E-01   1.00800           0
      4254 MEMB     34       CHL1     C22      CTL2    -0.180000       12.0110           0
      4255 MEMB     34       CHL1     H22A     HAL2     0.900000E-01   1.00800           0
      4256 MEMB     34       CHL1     H22B     HAL2     0.900000E-01   1.00800           0
      4257 MEMB     34       CHL1     C23      CTL2    -0.180000       12.0110           0
      4258 MEMB     34       CHL1     H23A     HAL2     0.900000E-01   1.00800           0
      4259 MEMB     34       CHL1     H23B     HAL2     0.900000E-01   1.00800           0
      4260 MEMB     34       CHL1     C24      CTL2    -0.180000       12.0110           0
      4261 MEMB     34       CHL1     H24A     HAL2     0.900000E-01   1.00800           0
      4262 MEMB     34       CHL1     H24B     HAL2     0.900000E-01   1.00800           0
      4263 MEMB     34       CHL1     C25      CTL1    -0.900000E-01   12.0110           0
      4264 MEMB     34       CHL1     H25      HAL1     0.900000E-01   1.00800           0
      4265 MEMB     34       CHL1     C26      CTL3    -0.270000       12.0110           0
      4266 MEMB     34       CHL1     H26A     HAL3     0.900000E-01   1.00800           0
      4267 MEMB     34       CHL1     H26B     HAL3     0.900000E-01   1.00800           0
      4268 MEMB     34       CHL1     H26C     HAL3     0.900000E-01   1.00800           0
      4269 MEMB     34       CHL1     C27      CTL3    -0.270000       12.0110           0
      4270 MEMB     34       CHL1     H27A     HAL3     0.900000E-01   1.00800           0
      4271 MEMB     34       CHL1     H27B     HAL3     0.900000E-01   1.00800           0
      4272 MEMB     34       CHL1     H27C     HAL3     0.900000E-01   1.00800           0
      4273 MEMB     35       DOPC     N        NTL     -0.600000       14.0070           0
      4274 MEMB     35       DOPC     C12      CTL2    -0.100000       12.0110           0
      4275 MEMB     35       DOPC     H12A     HL       0.250000       1.00800           0
      4276 MEMB     35       DOPC     H12B     HL       0.250000       1.00800           0
      4277 MEMB     35       DOPC     C13      CTL5    -0.350000       12.0110           0
      4278 MEMB     35       DOPC     H13A     HL       0.250000       1.00800           0
      4279 MEMB     35       DOPC     H13B     HL       0.250000       1.00800           0
      4280 MEMB     35       DOPC     H13C     HL       0.250000       1.00800           0
      4281 MEMB     35       DOPC     C14      CTL5    -0.350000       12.0110           0
      4282 MEMB     35       DOPC     H14A     HL       0.250000       1.00800           0
      4283 MEMB     35       DOPC     H14B     HL       0.250000       1.00800           0
      4284 MEMB     35       DOPC     H14C     HL       0.250000       1.00800           0
      4285 MEMB     35       DOPC     C15      CTL5    -0.350000       12.0110           0
      4286 MEMB     35       DOPC     H15A     HL       0.250000       1.00800           0
      4287 MEMB     35       DOPC     H15B     HL       0.250000       1.00800           0
      4288 MEMB     35       DOPC     H15C     HL       0.250000       1.00800           0
      4289 MEMB     35       DOPC     C11      CTL2    -0.800000E-01   12.0110           0
      4290 MEMB     35       DOPC     H11A     HAL2     0.900000E-01   1.00800           0
      4291 MEMB     35       DOPC     H11B     HAL2     0.900000E-01   1.00800           0
      4292 MEMB     35       DOPC     P        PL        1.50000       30.9740           0
      4293 MEMB     35       DOPC     O13      O2L     -0.780000       15.9994           0
      4294 MEMB     35       DOPC     O14      O2L     -0.780000       15.9994           0
      4295 MEMB     35       DOPC     O12      OSLP    -0.570000       15.9994           0
      4296 MEMB     35       DOPC     O11      OSLP    -0.570000       15.9994           0
      4297 MEMB     35       DOPC     C1       CTL2    -0.800000E-01   12.0110           0
      4298 MEMB     35       DOPC     HA       HAL2     0.900000E-01   1.00800           0
      4299 MEMB     35       DOPC     HB       HAL2     0.900000E-01   1.00800           0
      4300 MEMB     35       DOPC     C2       CTL1     0.170000       12.0110           0
      4301 MEMB     35       DOPC     HS       HAL1     0.900000E-01   1.00800           0
      4302 MEMB     35       DOPC     O21      OSL     -0.490000       15.9994           0
      4303 MEMB     35       DOPC     C21      CL       0.900000       12.0110           0
      4304 MEMB     35       DOPC     O22      OBL     -0.630000       15.9994           0
      4305 MEMB     35       DOPC     C22      CTL2    -0.220000       12.0110           0
      4306 MEMB     35       DOPC     H2R      HAL2     0.900000E-01   1.00800           0
      4307 MEMB     35       DOPC     H2S      HAL2     0.900000E-01   1.00800           0
      4308 MEMB     35       DOPC     C3       CTL2     0.800000E-01   12.0110           0
      4309 MEMB     35       DOPC     HX       HAL2     0.900000E-01   1.00800           0
      4310 MEMB     35       DOPC     HY       HAL2     0.900000E-01   1.00800           0
      4311 MEMB     35       DOPC     O31      OSL     -0.490000       15.9994           0
      4312 MEMB     35       DOPC     C31      CL       0.900000       12.0110           0
      4313 MEMB     35       DOPC     O32      OBL     -0.630000       15.9994           0
      4314 MEMB     35       DOPC     C32      CTL2    -0.220000       12.0110           0
      4315 MEMB     35       DOPC     H2X      HAL2     0.900000E-01   1.00800           0
      4316 MEMB     35       DOPC     H2Y      HAL2     0.900000E-01   1.00800           0
      4317 MEMB     35       DOPC     C23      CTL2    -0.180000       12.0110           0
      4318 MEMB     35       DOPC     H3R      HAL2     0.900000E-01   1.00800           0
      4319 MEMB     35       DOPC     H3S      HAL2     0.900000E-01   1.00800           0
      4320 MEMB     35       DOPC     C24      CTL2    -0.180000       12.0110           0
      4321 MEMB     35       DOPC     H4R      HAL2     0.900000E-01   1.00800           0
      4322 MEMB     35       DOPC     H4S      HAL2     0.900000E-01   1.00800           0
      4323 MEMB     35       DOPC     C25      CTL2    -0.180000       12.0110           0
      4324 MEMB     35       DOPC     H5R      HAL2     0.900000E-01   1.00800           0
      4325 MEMB     35       DOPC     H5S      HAL2     0.900000E-01   1.00800           0
      4326 MEMB     35       DOPC     C26      CTL2    -0.180000       12.0110           0
      4327 MEMB     35       DOPC     H6R      HAL2     0.900000E-01   1.00800           0
      4328 MEMB     35       DOPC     H6S      HAL2     0.900000E-01   1.00800           0
      4329 MEMB     35       DOPC     C27      CTL2    -0.180000       12.0110           0
      4330 MEMB     35       DOPC     H7R      HAL2     0.900000E-01   1.00800           0
      4331 MEMB     35       DOPC     H7S      HAL2     0.900000E-01   1.00800           0
      4332 MEMB     35       DOPC     C28      CTL2    -0.180000       12.0110           0
      4333 MEMB     35       DOPC     H8R      HAL2     0.900000E-01   1.00800           0
      4334 MEMB     35       DOPC     H8S      HAL2     0.900000E-01   1.00800           0
      4335 MEMB     35       DOPC     C29      CEL1    -0.150000       12.0110           0
      4336 MEMB     35       DOPC     H9R      HEL1     0.150000       1.00800           0
      4337 MEMB     35       DOPC     C210     CEL1    -0.150000       12.0110           0
      4338 MEMB     35       DOPC     H10R     HEL1     0.150000       1.00800           0
      4339 MEMB     35       DOPC     C211     CTL2    -0.180000       12.0110           0
      4340 MEMB     35       DOPC     H11R     HAL2     0.900000E-01   1.00800           0
      4341 MEMB     35       DOPC     H11S     HAL2     0.900000E-01   1.00800           0
      4342 MEMB     35       DOPC     C212     CTL2    -0.180000       12.0110           0
      4343 MEMB     35       DOPC     H12R     HAL2     0.900000E-01   1.00800           0
      4344 MEMB     35       DOPC     H12S     HAL2     0.900000E-01   1.00800           0
      4345 MEMB     35       DOPC     C213     CTL2    -0.180000       12.0110           0
      4346 MEMB     35       DOPC     H13R     HAL2     0.900000E-01   1.00800           0
      4347 MEMB     35       DOPC     H13S     HAL2     0.900000E-01   1.00800           0
      4348 MEMB     35       DOPC     C214     CTL2    -0.180000       12.0110           0
      4349 MEMB     35       DOPC     H14R     HAL2     0.900000E-01   1.00800           0
      4350 MEMB     35       DOPC     H14S     HAL2     0.900000E-01   1.00800           0
      4351 MEMB     35       DOPC     C215     CTL2    -0.180000       12.0110           0
      4352 MEMB     35       DOPC     H15R     HAL2     0.900000E-01   1.00800           0
      4353 MEMB     35       DOPC     H15S     HAL2     0.900000E-01   1.00800           0
      4354 MEMB     35       DOPC     C216     CTL2    -0.180000       12.0110           0
      4355 MEMB     35       DOPC     H16R     HAL2     0.900000E-01   1.00800           0
      4356 MEMB     35       DOPC     H16S     HAL2     0.900000E-01   1.00800           0
      4357 MEMB     35       DOPC     C217     CTL2    -0.180000       12.0110           0
      4358 MEMB     35       DOPC     H17R     HAL2     0.900000E-01   1.00800           0
      4359 MEMB     35       DOPC     H17S     HAL2     0.900000E-01   1.00800           0
      4360 MEMB     35       DOPC     C218     CTL3    -0.270000       12.0110           0
      4361 MEMB     35       DOPC     H18R     HAL3     0.900000E-01   1.00800           0
      4362 MEMB     35       DOPC     H18S     HAL3     0.900000E-01   1.00800           0
      4363 MEMB     35       DOPC     H18T     HAL3     0.900000E-01   1.00800           0
      4364 MEMB     35       DOPC     C33      CTL2    -0.180000       12.0110           0
      4365 MEMB     35       DOPC     H3X      HAL2     0.900000E-01   1.00800           0
      4366 MEMB     35       DOPC     H3Y      HAL2     0.900000E-01   1.00800           0
      4367 MEMB     35       DOPC     C34      CTL2    -0.180000       12.0110           0
      4368 MEMB     35       DOPC     H4X      HAL2     0.900000E-01   1.00800           0
      4369 MEMB     35       DOPC     H4Y      HAL2     0.900000E-01   1.00800           0
      4370 MEMB     35       DOPC     C35      CTL2    -0.180000       12.0110           0
      4371 MEMB     35       DOPC     H5X      HAL2     0.900000E-01   1.00800           0
      4372 MEMB     35       DOPC     H5Y      HAL2     0.900000E-01   1.00800           0
      4373 MEMB     35       DOPC     C36      CTL2    -0.180000       12.0110           0
      4374 MEMB     35       DOPC     H6X      HAL2     0.900000E-01   1.00800           0
      4375 MEMB     35       DOPC     H6Y      HAL2     0.900000E-01   1.00800           0
      4376 MEMB     35       DOPC     C37      CTL2    -0.180000       12.0110           0
      4377 MEMB     35       DOPC     H7X      HAL2     0.900000E-01   1.00800           0
      4378 MEMB     35       DOPC     H7Y      HAL2     0.900000E-01   1.00800           0
      4379 MEMB     35       DOPC     C38      CTL2    -0.180000       12.0110           0
      4380 MEMB     35       DOPC     H8X      HAL2     0.900000E-01   1.00800           0
      4381 MEMB     35       DOPC     H8Y      HAL2     0.900000E-01   1.00800           0
      4382 MEMB     35       DOPC     C39      CEL1    -0.150000       12.0110           0
      4383 MEMB     35       DOPC     H9X      HEL1     0.150000       1.00800           0
      4384 MEMB     35       DOPC     C310     CEL1    -0.150000       12.0110           0
      4385 MEMB     35       DOPC     H10X     HEL1     0.150000       1.00800           0
      4386 MEMB     35       DOPC     C311     CTL2    -0.180000       12.0110           0
      4387 MEMB     35       DOPC     H11X     HAL2     0.900000E-01   1.00800           0
      4388 MEMB     35       DOPC     H11Y     HAL2     0.900000E-01   1.00800           0
      4389 MEMB     35       DOPC     C312     CTL2    -0.180000       12.0110           0
      4390 MEMB     35       DOPC     H12X     HAL2     0.900000E-01   1.00800           0
      4391 MEMB     35       DOPC     H12Y     HAL2     0.900000E-01   1.00800           0
      4392 MEMB     35       DOPC     C313     CTL2    -0.180000       12.0110           0
      4393 MEMB     35       DOPC     H13X     HAL2     0.900000E-01   1.00800           0
      4394 MEMB     35       DOPC     H13Y     HAL2     0.900000E-01   1.00800           0
      4395 MEMB     35       DOPC     C314     CTL2    -0.180000       12.0110           0
      4396 MEMB     35       DOPC     H14X     HAL2     0.900000E-01   1.00800           0
      4397 MEMB     35       DOPC     H14Y     HAL2     0.900000E-01   1.00800           0
      4398 MEMB     35       DOPC     C315     CTL2    -0.180000       12.0110           0
      4399 MEMB     35       DOPC     H15X     HAL2     0.900000E-01   1.00800           0
      4400 MEMB     35       DOPC     H15Y     HAL2     0.900000E-01   1.00800           0
      4401 MEMB     35       DOPC     C316     CTL2    -0.180000       12.0110           0
      4402 MEMB     35       DOPC     H16X     HAL2     0.900000E-01   1.00800           0
      4403 MEMB     35       DOPC     H16Y     HAL2     0.900000E-01   1.00800           0
      4404 MEMB     35       DOPC     C317     CTL2    -0.180000       12.0110           0
      4405 MEMB     35       DOPC     H17X     HAL2     0.900000E-01   1.00800           0
      4406 MEMB     35       DOPC     H17Y     HAL2     0.900000E-01   1.00800           0
      4407 MEMB     35       DOPC     C318     CTL3    -0.270000       12.0110           0
      4408 MEMB     35       DOPC     H18X     HAL3     0.900000E-01   1.00800           0
      4409 MEMB     35       DOPC     H18Y     HAL3     0.900000E-01   1.00800           0
      4410 MEMB     35       DOPC     H18Z     HAL3     0.900000E-01   1.00800           0
      4411 MEMB     36       CHL1     C3       CRL1     0.140000       12.0110           0
      4412 MEMB     36       CHL1     H3       HGA1     0.900000E-01   1.00800           0
      4413 MEMB     36       CHL1     O3       OHL     -0.660000       15.9994           0
      4414 MEMB     36       CHL1     H3'      HOL      0.430000       1.00800           0
      4415 MEMB     36       CHL1     C4       CRL2    -0.180000       12.0110           0
      4416 MEMB     36       CHL1     H4A      HGA2     0.900000E-01   1.00800           0
      4417 MEMB     36       CHL1     H4B      HGA2     0.900000E-01   1.00800           0
      4418 MEMB     36       CHL1     C5       CEL1      0.00000       12.0110           0
      4419 MEMB     36       CHL1     C6       CEL1    -0.150000       12.0110           0
      4420 MEMB     36       CHL1     H6       HEL1     0.150000       1.00800           0
      4421 MEMB     36       CHL1     C7       CRL2    -0.180000       12.0110           0
      4422 MEMB     36       CHL1     H7A      HGA2     0.900000E-01   1.00800           0
      4423 MEMB     36       CHL1     H7B      HGA2     0.900000E-01   1.00800           0
      4424 MEMB     36       CHL1     C8       CRL1    -0.900000E-01   12.0110           0
      4425 MEMB     36       CHL1     H8       HGA1     0.900000E-01   1.00800           0
      4426 MEMB     36       CHL1     C14      CRL1    -0.900000E-01   12.0110           0
      4427 MEMB     36       CHL1     H14      HGA1     0.900000E-01   1.00800           0
      4428 MEMB     36       CHL1     C15      CRL2    -0.180000       12.0110           0
      4429 MEMB     36       CHL1     H15A     HGA2     0.900000E-01   1.00800           0
      4430 MEMB     36       CHL1     H15B     HGA2     0.900000E-01   1.00800           0
      4431 MEMB     36       CHL1     C16      CRL2    -0.180000       12.0110           0
      4432 MEMB     36       CHL1     H16A     HGA2     0.900000E-01   1.00800           0
      4433 MEMB     36       CHL1     H16B     HGA2     0.900000E-01   1.00800           0
      4434 MEMB     36       CHL1     C17      CRL1    -0.900000E-01   12.0110           0
      4435 MEMB     36       CHL1     H17      HGA1     0.900000E-01   1.00800           0
      4436 MEMB     36       CHL1     C13      CRL1      0.00000       12.0110           0
      4437 MEMB     36       CHL1     C18      CTL3    -0.270000       12.0110           0
      4438 MEMB     36       CHL1     H18A     HAL3     0.900000E-01   1.00800           0
      4439 MEMB     36       CHL1     H18B     HAL3     0.900000E-01   1.00800           0
      4440 MEMB     36       CHL1     H18C     HAL3     0.900000E-01   1.00800           0
      4441 MEMB     36       CHL1     C12      CRL2    -0.180000       12.0110           0
      4442 MEMB     36       CHL1     H12A     HGA2     0.900000E-01   1.00800           0
      4443 MEMB     36       CHL1     H12B     HGA2     0.900000E-01   1.00800           0
      4444 MEMB     36       CHL1     C11      CRL2    -0.180000       12.0110           0
      4445 MEMB     36       CHL1     H11A     HGA2     0.900000E-01   1.00800           0
      4446 MEMB     36       CHL1     H11B     HGA2     0.900000E-01   1.00800           0
      4447 MEMB     36       CHL1     C9       CRL1    -0.900000E-01   12.0110           0
      4448 MEMB     36       CHL1     H9       HGA1     0.900000E-01   1.00800           0
      4449 MEMB     36       CHL1     C10      CRL1      0.00000       12.0110           0
      4450 MEMB     36       CHL1     C19      CTL3    -0.270000       12.0110           0
      4451 MEMB     36       CHL1     H19A     HAL3     0.900000E-01   1.00800           0
      4452 MEMB     36       CHL1     H19B     HAL3     0.900000E-01   1.00800           0
      4453 MEMB     36       CHL1     H19C     HAL3     0.900000E-01   1.00800           0
      4454 MEMB     36       CHL1     C1       CRL2    -0.180000       12.0110           0
      4455 MEMB     36       CHL1     H1A      HGA2     0.900000E-01   1.00800           0
      4456 MEMB     36       CHL1     H1B      HGA2     0.900000E-01   1.00800           0
      4457 MEMB     36       CHL1     C2       CRL2    -0.180000       12.0110           0
      4458 MEMB     36       CHL1     H2A      HGA2     0.900000E-01   1.00800           0
      4459 MEMB     36       CHL1     H2B      HGA2     0.900000E-01   1.00800           0
      4460 MEMB     36       CHL1     C20      CTL1    -0.900000E-01   12.0110           0
      4461 MEMB     36       CHL1     H20      HAL1     0.900000E-01   1.00800           0
      4462 MEMB     36       CHL1     C21      CTL3    -0.270000       12.0110           0
      4463 MEMB     36       CHL1     H21A     HAL3     0.900000E-01   1.00800           0
      4464 MEMB     36       CHL1     H21B     HAL3     0.900000E-01   1.00800           0
      4465 MEMB     36       CHL1     H21C     HAL3     0.900000E-01   1.00800           0
      4466 MEMB     36       CHL1     C22      CTL2    -0.180000       12.0110           0
      4467 MEMB     36       CHL1     H22A     HAL2     0.900000E-01   1.00800           0
      4468 MEMB     36       CHL1     H22B     HAL2     0.900000E-01   1.00800           0
      4469 MEMB     36       CHL1     C23      CTL2    -0.180000       12.0110           0
      4470 MEMB     36       CHL1     H23A     HAL2     0.900000E-01   1.00800           0
      4471 MEMB     36       CHL1     H23B     HAL2     0.900000E-01   1.00800           0
      4472 MEMB     36       CHL1     C24      CTL2    -0.180000       12.0110           0
      4473 MEMB     36       CHL1     H24A     HAL2     0.900000E-01   1.00800           0
      4474 MEMB     36       CHL1     H24B     HAL2     0.900000E-01   1.00800           0
      4475 MEMB     36       CHL1     C25      CTL1    -0.900000E-01   12.0110           0
      4476 MEMB     36       CHL1     H25      HAL1     0.900000E-01   1.00800           0
      4477 MEMB     36       CHL1     C26      CTL3    -0.270000       12.0110           0
      4478 MEMB     36       CHL1     H26A     HAL3     0.900000E-01   1.00800           0
      4479 MEMB     36       CHL1     H26B     HAL3     0.900000E-01   1.00800           0
      4480 MEMB     36       CHL1     H26C     HAL3     0.900000E-01   1.00800           0
      4481 MEMB     36       CHL1     C27      CTL3    -0.270000       12.0110           0
      4482 MEMB     36       CHL1     H27A     HAL3     0.900000E-01   1.00800           0
      4483 MEMB     36       CHL1     H27B     HAL3     0.900000E-01   1.00800           0
      4484 MEMB     36       CHL1     H27C     HAL3     0.900000E-01   1.00800           0
      4485 MEMB     37       DOPC     N        NTL     -0.600000       14.0070           0
      4486 MEMB     37       DOPC     C12      CTL2    -0.100000       12.0110           0
      4487 MEMB     37       DOPC     H12A     HL       0.250000       1.00800           0
      4488 MEMB     37       DOPC     H12B     HL       0.250000       1.00800           0
      4489 MEMB     37       DOPC     C13      CTL5    -0.350000       12.0110           0
      4490 MEMB     37       DOPC     H13A     HL       0.250000       1.00800           0
      4491 MEMB     37       DOPC     H13B     HL       0.250000       1.00800           0
      4492 MEMB     37       DOPC     H13C     HL       0.250000       1.00800           0
      4493 MEMB     37       DOPC     C14      CTL5    -0.350000       12.0110           0
      4494 MEMB     37       DOPC     H14A     HL       0.250000       1.00800           0
      4495 MEMB     37       DOPC     H14B     HL       0.250000       1.00800           0
      4496 MEMB     37       DOPC     H14C     HL       0.250000       1.00800           0
      4497 MEMB     37       DOPC     C15      CTL5    -0.350000       12.0110           0
      4498 MEMB     37       DOPC     H15A     HL       0.250000       1.00800           0
      4499 MEMB     37       DOPC     H15B     HL       0.250000       1.00800           0
      4500 MEMB     37       DOPC     H15C     HL       0.250000       1.00800           0
      4501 MEMB     37       DOPC     C11      CTL2    -0.800000E-01   12.0110           0
      4502 MEMB     37       DOPC     H11A     HAL2     0.900000E-01   1.00800           0
      4503 MEMB     37       DOPC     H11B     HAL2     0.900000E-01   1.00800           0
      4504 MEMB     37       DOPC     P        PL        1.50000       30.9740           0
      4505 MEMB     37       DOPC     O13      O2L     -0.780000       15.9994           0
      4506 MEMB     37       DOPC     O14      O2L     -0.780000       15.9994           0
      4507 MEMB     37       DOPC     O12      OSLP    -0.570000       15.9994           0
      4508 MEMB     37       DOPC     O11      OSLP    -0.570000       15.9994           0
      4509 MEMB     37       DOPC     C1       CTL2    -0.800000E-01   12.0110           0
      4510 MEMB     37       DOPC     HA       HAL2     0.900000E-01   1.00800           0
      4511 MEMB     37       DOPC     HB       HAL2     0.900000E-01   1.00800           0
      4512 MEMB     37       DOPC     C2       CTL1     0.170000       12.0110           0
      4513 MEMB     37       DOPC     HS       HAL1     0.900000E-01   1.00800           0
      4514 MEMB     37       DOPC     O21      OSL     -0.490000       15.9994           0
      4515 MEMB     37       DOPC     C21      CL       0.900000       12.0110           0
      4516 MEMB     37       DOPC     O22      OBL     -0.630000       15.9994           0
      4517 MEMB     37       DOPC     C22      CTL2    -0.220000       12.0110           0
      4518 MEMB     37       DOPC     H2R      HAL2     0.900000E-01   1.00800           0
      4519 MEMB     37       DOPC     H2S      HAL2     0.900000E-01   1.00800           0
      4520 MEMB     37       DOPC     C3       CTL2     0.800000E-01   12.0110           0
      4521 MEMB     37       DOPC     HX       HAL2     0.900000E-01   1.00800           0
      4522 MEMB     37       DOPC     HY       HAL2     0.900000E-01   1.00800           0
      4523 MEMB     37       DOPC     O31      OSL     -0.490000       15.9994           0
      4524 MEMB     37       DOPC     C31      CL       0.900000       12.0110           0
      4525 MEMB     37       DOPC     O32      OBL     -0.630000       15.9994           0
      4526 MEMB     37       DOPC     C32      CTL2    -0.220000       12.0110           0
      4527 MEMB     37       DOPC     H2X      HAL2     0.900000E-01   1.00800           0
      4528 MEMB     37       DOPC     H2Y      HAL2     0.900000E-01   1.00800           0
      4529 MEMB     37       DOPC     C23      CTL2    -0.180000       12.0110           0
      4530 MEMB     37       DOPC     H3R      HAL2     0.900000E-01   1.00800           0
      4531 MEMB     37       DOPC     H3S      HAL2     0.900000E-01   1.00800           0
      4532 MEMB     37       DOPC     C24      CTL2    -0.180000       12.0110           0
      4533 MEMB     37       DOPC     H4R      HAL2     0.900000E-01   1.00800           0
      4534 MEMB     37       DOPC     H4S      HAL2     0.900000E-01   1.00800           0
      4535 MEMB     37       DOPC     C25      CTL2    -0.180000       12.0110           0
      4536 MEMB     37       DOPC     H5R      HAL2     0.900000E-01   1.00800           0
      4537 MEMB     37       DOPC     H5S      HAL2     0.900000E-01   1.00800           0
      4538 MEMB     37       DOPC     C26      CTL2    -0.180000       12.0110           0
      4539 MEMB     37       DOPC     H6R      HAL2     0.900000E-01   1.00800           0
      4540 MEMB     37       DOPC     H6S      HAL2     0.900000E-01   1.00800           0
      4541 MEMB     37       DOPC     C27      CTL2    -0.180000       12.0110           0
      4542 MEMB     37       DOPC     H7R      HAL2     0.900000E-01   1.00800           0
      4543 MEMB     37       DOPC     H7S      HAL2     0.900000E-01   1.00800           0
      4544 MEMB     37       DOPC     C28      CTL2    -0.180000       12.0110           0
      4545 MEMB     37       DOPC     H8R      HAL2     0.900000E-01   1.00800           0
      4546 MEMB     37       DOPC     H8S      HAL2     0.900000E-01   1.00800           0
      4547 MEMB     37       DOPC     C29      CEL1    -0.150000       12.0110           0
      4548 MEMB     37       DOPC     H9R      HEL1     0.150000       1.00800           0
      4549 MEMB     37       DOPC     C210     CEL1    -0.150000       12.0110           0
      4550 MEMB     37       DOPC     H10R     HEL1     0.150000       1.00800           0
      4551 MEMB     37       DOPC     C211     CTL2    -0.180000       12.0110           0
      4552 MEMB     37       DOPC     H11R     HAL2     0.900000E-01   1.00800           0
      4553 MEMB     37       DOPC     H11S     HAL2     0.900000E-01   1.00800           0
      4554 MEMB     37       DOPC     C212     CTL2    -0.180000       12.0110           0
      4555 MEMB     37       DOPC     H12R     HAL2     0.900000E-01   1.00800           0
      4556 MEMB     37       DOPC     H12S     HAL2     0.900000E-01   1.00800           0
      4557 MEMB     37       DOPC     C213     CTL2    -0.180000       12.0110           0
      4558 MEMB     37       DOPC     H13R     HAL2     0.900000E-01   1.00800           0
      4559 MEMB     37       DOPC     H13S     HAL2     0.900000E-01   1.00800           0
      4560 MEMB     37       DOPC     C214     CTL2    -0.180000       12.0110           0
      4561 MEMB     37       DOPC     H14R     HAL2     0.900000E-01   1.00800           0
      4562 MEMB     37       DOPC     H14S     HAL2     0.900000E-01   1.00800           0
      4563 MEMB     37       DOPC     C215     CTL2    -0.180000       12.0110           0
      4564 MEMB     37       DOPC     H15R     HAL2     0.900000E-01   1.00800           0
      4565 MEMB     37       DOPC     H15S     HAL2     0.900000E-01   1.00800           0
      4566 MEMB     37       DOPC     C216     CTL2    -0.180000       12.0110           0
      4567 MEMB     37       DOPC     H16R     HAL2     0.900000E-01   1.00800           0
      4568 MEMB     37       DOPC     H16S     HAL2     0.900000E-01   1.00800           0
      4569 MEMB     37       DOPC     C217     CTL2    -0.180000       12.0110           0
      4570 MEMB     37       DOPC     H17R     HAL2     0.900000E-01   1.00800           0
      4571 MEMB     37       DOPC     H17S     HAL2     0.900000E-01   1.00800           0
      4572 MEMB     37       DOPC     C218     CTL3    -0.270000       12.0110           0
      4573 MEMB     37       DOPC     H18R     HAL3     0.900000E-01   1.00800           0
      4574 MEMB     37       DOPC     H18S     HAL3     0.900000E-01   1.00800           0
      4575 MEMB     37       DOPC     H18T     HAL3     0.900000E-01   1.00800           0
      4576 MEMB     37       DOPC     C33      CTL2    -0.180000       12.0110           0
      4577 MEMB     37       DOPC     H3X      HAL2     0.900000E-01   1.00800           0
      4578 MEMB     37       DOPC     H3Y      HAL2     0.900000E-01   1.00800           0
      4579 MEMB     37       DOPC     C34      CTL2    -0.180000       12.0110           0
      4580 MEMB     37       DOPC     H4X      HAL2     0.900000E-01   1.00800           0
      4581 MEMB     37       DOPC     H4Y      HAL2     0.900000E-01   1.00800           0
      4582 MEMB     37       DOPC     C35      CTL2    -0.180000       12.0110           0
      4583 MEMB     37       DOPC     H5X      HAL2     0.900000E-01   1.00800           0
      4584 MEMB     37       DOPC     H5Y      HAL2     0.900000E-01   1.00800           0
      4585 MEMB     37       DOPC     C36      CTL2    -0.180000       12.0110           0
      4586 MEMB     37       DOPC     H6X      HAL2     0.900000E-01   1.00800           0
      4587 MEMB     37       DOPC     H6Y      HAL2     0.900000E-01   1.00800           0
      4588 MEMB     37       DOPC     C37      CTL2    -0.180000       12.0110           0
      4589 MEMB     37       DOPC     H7X      HAL2     0.900000E-01   1.00800           0
      4590 MEMB     37       DOPC     H7Y      HAL2     0.900000E-01   1.00800           0
      4591 MEMB     37       DOPC     C38      CTL2    -0.180000       12.0110           0
      4592 MEMB     37       DOPC     H8X      HAL2     0.900000E-01   1.00800           0
      4593 MEMB     37       DOPC     H8Y      HAL2     0.900000E-01   1.00800           0
      4594 MEMB     37       DOPC     C39      CEL1    -0.150000       12.0110           0
      4595 MEMB     37       DOPC     H9X      HEL1     0.150000       1.00800           0
      4596 MEMB     37       DOPC     C310     CEL1    -0.150000       12.0110           0
      4597 MEMB     37       DOPC     H10X     HEL1     0.150000       1.00800           0
      4598 MEMB     37       DOPC     C311     CTL2    -0.180000       12.0110           0
      4599 MEMB     37       DOPC     H11X     HAL2     0.900000E-01   1.00800           0
      4600 MEMB     37       DOPC     H11Y     HAL2     0.900000E-01   1.00800           0
      4601 MEMB     37       DOPC     C312     CTL2    -0.180000       12.0110           0
      4602 MEMB     37       DOPC     H12X     HAL2     0.900000E-01   1.00800           0
      4603 MEMB     37       DOPC     H12Y     HAL2     0.900000E-01   1.00800           0
      4604 MEMB     37       DOPC     C313     CTL2    -0.180000       12.0110           0
      4605 MEMB     37       DOPC     H13X     HAL2     0.900000E-01   1.00800           0
      4606 MEMB     37       DOPC     H13Y     HAL2     0.900000E-01   1.00800           0
      4607 MEMB     37       DOPC     C314     CTL2    -0.180000       12.0110           0
      4608 MEMB     37       DOPC     H14X     HAL2     0.900000E-01   1.00800           0
      4609 MEMB     37       DOPC     H14Y     HAL2     0.900000E-01   1.00800           0
      4610 MEMB     37       DOPC     C315     CTL2    -0.180000       12.0110           0
      4611 MEMB     37       DOPC     H15X     HAL2     0.900000E-01   1.00800           0
      4612 MEMB     37       DOPC     H15Y     HAL2     0.900000E-01   1.00800           0
      4613 MEMB     37       DOPC     C316     CTL2    -0.180000       12.0110           0
      4614 MEMB     37       DOPC     H16X     HAL2     0.900000E-01   1.00800           0
      4615 MEMB     37       DOPC     H16Y     HAL2     0.900000E-01   1.00800           0
      4616 MEMB     37       DOPC     C317     CTL2    -0.180000       12.0110           0
      4617 MEMB     37       DOPC     H17X     HAL2     0.900000E-01   1.00800           0
      4618 MEMB     37       DOPC     H17Y     HAL2     0.900000E-01   1.00800           0
      4619 MEMB     37       DOPC     C318     CTL3    -0.270000       12.0110           0
      4620 MEMB     37       DOPC     H18X     HAL3     0.900000E-01   1.00800           0
      4621 MEMB     37       DOPC     H18Y     HAL3     0.900000E-01   1.00800           0
      4622 MEMB     37       DOPC     H18Z     HAL3     0.900000E-01   1.00800           0
      4623 MEMB     38       DOPC     N        NTL     -0.600000       14.0070           0
      4624 MEMB     38       DOPC     C12      CTL2    -0.100000       12.0110           0
      4625 MEMB     38       DOPC     H12A     HL       0.250000       1.00800           0
      4626 MEMB     38       DOPC     H12B     HL       0.250000       1.00800           0
      4627 MEMB     38       DOPC     C13      CTL5    -0.350000       12.0110           0
      4628 MEMB     38       DOPC     H13A     HL       0.250000       1.00800           0
      4629 MEMB     38       DOPC     H13B     HL       0.250000       1.00800           0
      4630 MEMB     38       DOPC     H13C     HL       0.250000       1.00800           0
      4631 MEMB     38       DOPC     C14      CTL5    -0.350000       12.0110           0
      4632 MEMB     38       DOPC     H14A     HL       0.250000       1.00800           0
      4633 MEMB     38       DOPC     H14B     HL       0.250000       1.00800           0
      4634 MEMB     38       DOPC     H14C     HL       0.250000       1.00800           0
      4635 MEMB     38       DOPC     C15      CTL5    -0.350000       12.0110           0
      4636 MEMB     38       DOPC     H15A     HL       0.250000       1.00800           0
      4637 MEMB     38       DOPC     H15B     HL       0.250000       1.00800           0
      4638 MEMB     38       DOPC     H15C     HL       0.250000       1.00800           0
      4639 MEMB     38       DOPC     C11      CTL2    -0.800000E-01   12.0110           0
      4640 MEMB     38       DOPC     H11A     HAL2     0.900000E-01   1.00800           0
      4641 MEMB     38       DOPC     H11B     HAL2     0.900000E-01   1.00800           0
      4642 MEMB     38       DOPC     P        PL        1.50000       30.9740           0
      4643 MEMB     38       DOPC     O13      O2L     -0.780000       15.9994           0
      4644 MEMB     38       DOPC     O14      O2L     -0.780000       15.9994           0
      4645 MEMB     38       DOPC     O12      OSLP    -0.570000       15.9994           0
      4646 MEMB     38       DOPC     O11      OSLP    -0.570000       15.9994           0
      4647 MEMB     38       DOPC     C1       CTL2    -0.800000E-01   12.0110           0
      4648 MEMB     38       DOPC     HA       HAL2     0.900000E-01   1.00800           0
      4649 MEMB     38       DOPC     HB       HAL2     0.900000E-01   1.00800           0
      4650 MEMB     38       DOPC     C2       CTL1     0.170000       12.0110           0
      4651 MEMB     38       DOPC     HS       HAL1     0.900000E-01   1.00800           0
      4652 MEMB     38       DOPC     O21      OSL     -0.490000       15.9994           0
      4653 MEMB     38       DOPC     C21      CL       0.900000       12.0110           0
      4654 MEMB     38       DOPC     O22      OBL     -0.630000       15.9994           0
      4655 MEMB     38       DOPC     C22      CTL2    -0.220000       12.0110           0
      4656 MEMB     38       DOPC     H2R      HAL2     0.900000E-01   1.00800           0
      4657 MEMB     38       DOPC     H2S      HAL2     0.900000E-01   1.00800           0
      4658 MEMB     38       DOPC     C3       CTL2     0.800000E-01   12.0110           0
      4659 MEMB     38       DOPC     HX       HAL2     0.900000E-01   1.00800           0
      4660 MEMB     38       DOPC     HY       HAL2     0.900000E-01   1.00800           0
      4661 MEMB     38       DOPC     O31      OSL     -0.490000       15.9994           0
      4662 MEMB     38       DOPC     C31      CL       0.900000       12.0110           0
      4663 MEMB     38       DOPC     O32      OBL     -0.630000       15.9994           0
      4664 MEMB     38       DOPC     C32      CTL2    -0.220000       12.0110           0
      4665 MEMB     38       DOPC     H2X      HAL2     0.900000E-01   1.00800           0
      4666 MEMB     38       DOPC     H2Y      HAL2     0.900000E-01   1.00800           0
      4667 MEMB     38       DOPC     C23      CTL2    -0.180000       12.0110           0
      4668 MEMB     38       DOPC     H3R      HAL2     0.900000E-01   1.00800           0
      4669 MEMB     38       DOPC     H3S      HAL2     0.900000E-01   1.00800           0
      4670 MEMB     38       DOPC     C24      CTL2    -0.180000       12.0110           0
      4671 MEMB     38       DOPC     H4R      HAL2     0.900000E-01   1.00800           0
      4672 MEMB     38       DOPC     H4S      HAL2     0.900000E-01   1.00800           0
      4673 MEMB     38       DOPC     C25      CTL2    -0.180000       12.0110           0
      4674 MEMB     38       DOPC     H5R      HAL2     0.900000E-01   1.00800           0
      4675 MEMB     38       DOPC     H5S      HAL2     0.900000E-01   1.00800           0
      4676 MEMB     38       DOPC     C26      CTL2    -0.180000       12.0110           0
      4677 MEMB     38       DOPC     H6R      HAL2     0.900000E-01   1.00800           0
      4678 MEMB     38       DOPC     H6S      HAL2     0.900000E-01   1.00800           0
      4679 MEMB     38       DOPC     C27      CTL2    -0.180000       12.0110           0
      4680 MEMB     38       DOPC     H7R      HAL2     0.900000E-01   1.00800           0
      4681 MEMB     38       DOPC     H7S      HAL2     0.900000E-01   1.00800           0
      4682 MEMB     38       DOPC     C28      CTL2    -0.180000       12.0110           0
      4683 MEMB     38       DOPC     H8R      HAL2     0.900000E-01   1.00800           0
      4684 MEMB     38       DOPC     H8S      HAL2     0.900000E-01   1.00800           0
      4685 MEMB     38       DOPC     C29      CEL1    -0.150000       12.0110           0
      4686 MEMB     38       DOPC     H9R      HEL1     0.150000       1.00800           0
      4687 MEMB     38       DOPC     C210     CEL1    -0.150000       12.0110           0
      4688 MEMB     38       DOPC     H10R     HEL1     0.150000       1.00800           0
      4689 MEMB     38       DOPC     C211     CTL2    -0.180000       12.0110           0
      4690 MEMB     38       DOPC     H11R     HAL2     0.900000E-01   1.00800           0
      4691 MEMB     38       DOPC     H11S     HAL2     0.900000E-01   1.00800           0
      4692 MEMB     38       DOPC     C212     CTL2    -0.180000       12.0110           0
      4693 MEMB     38       DOPC     H12R     HAL2     0.900000E-01   1.00800           0
      4694 MEMB     38       DOPC     H12S     HAL2     0.900000E-01   1.00800           0
      4695 MEMB     38       DOPC     C213     CTL2    -0.180000       12.0110           0
      4696 MEMB     38       DOPC     H13R     HAL2     0.900000E-01   1.00800           0
      4697 MEMB     38       DOPC     H13S     HAL2     0.900000E-01   1.00800           0
      4698 MEMB     38       DOPC     C214     CTL2    -0.180000       12.0110           0
      4699 MEMB     38       DOPC     H14R     HAL2     0.900000E-01   1.00800           0
      4700 MEMB     38       DOPC     H14S     HAL2     0.900000E-01   1.00800           0
      4701 MEMB     38       DOPC     C215     CTL2    -0.180000       12.0110           0
      4702 MEMB     38       DOPC     H15R     HAL2     0.900000E-01   1.00800           0
      4703 MEMB     38       DOPC     H15S     HAL2     0.900000E-01   1.00800           0
      4704 MEMB     38       DOPC     C216     CTL2    -0.180000       12.0110           0
      4705 MEMB     38       DOPC     H16R     HAL2     0.900000E-01   1.00800           0
      4706 MEMB     38       DOPC     H16S     HAL2     0.900000E-01   1.00800           0
      4707 MEMB     38       DOPC     C217     CTL2    -0.180000       12.0110           0
      4708 MEMB     38       DOPC     H17R     HAL2     0.900000E-01   1.00800           0
      4709 MEMB     38       DOPC     H17S     HAL2     0.900000E-01   1.00800           0
      4710 MEMB     38       DOPC     C218     CTL3    -0.270000       12.0110           0
      4711 MEMB     38       DOPC     H18R     HAL3     0.900000E-01   1.00800           0
      4712 MEMB     38       DOPC     H18S     HAL3     0.900000E-01   1.00800           0
      4713 MEMB     38       DOPC     H18T     HAL3     0.900000E-01   1.00800           0
      4714 MEMB     38       DOPC     C33      CTL2    -0.180000       12.0110           0
      4715 MEMB     38       DOPC     H3X      HAL2     0.900000E-01   1.00800           0
      4716 MEMB     38       DOPC     H3Y      HAL2     0.900000E-01   1.00800           0
      4717 MEMB     38       DOPC     C34      CTL2    -0.180000       12.0110           0
      4718 MEMB     38       DOPC     H4X      HAL2     0.900000E-01   1.00800           0
      4719 MEMB     38       DOPC     H4Y      HAL2     0.900000E-01   1.00800           0
      4720 MEMB     38       DOPC     C35      CTL2    -0.180000       12.0110           0
      4721 MEMB     38       DOPC     H5X      HAL2     0.900000E-01   1.00800           0
      4722 MEMB     38       DOPC     H5Y      HAL2     0.900000E-01   1.00800           0
      4723 MEMB     38       DOPC     C36      CTL2    -0.180000       12.0110           0
      4724 MEMB     38       DOPC     H6X      HAL2     0.900000E-01   1.00800           0
      4725 MEMB     38       DOPC     H6Y      HAL2     0.900000E-01   1.00800           0
      4726 MEMB     38       DOPC     C37      CTL2    -0.180000       12.0110           0
      4727 MEMB     38       DOPC     H7X      HAL2     0.900000E-01   1.00800           0
      4728 MEMB     38       DOPC     H7Y      HAL2     0.900000E-01   1.00800           0
      4729 MEMB     38       DOPC     C38      CTL2    -0.180000       12.0110           0
      4730 MEMB     38       DOPC     H8X      HAL2     0.900000E-01   1.00800           0
      4731 MEMB     38       DOPC     H8Y      HAL2     0.900000E-01   1.00800           0
      4732 MEMB     38       DOPC     C39      CEL1    -0.150000       12.0110           0
      4733 MEMB     38       DOPC     H9X      HEL1     0.150000       1.00800           0
      4734 MEMB     38       DOPC     C310     CEL1    -0.150000       12.0110           0
      4735 MEMB     38       DOPC     H10X     HEL1     0.150000       1.00800           0
      4736 MEMB     38       DOPC     C311     CTL2    -0.180000       12.0110           0
      4737 MEMB     38       DOPC     H11X     HAL2     0.900000E-01   1.00800           0
      4738 MEMB     38       DOPC     H11Y     HAL2     0.900000E-01   1.00800           0
      4739 MEMB     38       DOPC     C312     CTL2    -0.180000       12.0110           0
      4740 MEMB     38       DOPC     H12X     HAL2     0.900000E-01   1.00800           0
      4741 MEMB     38       DOPC     H12Y     HAL2     0.900000E-01   1.00800           0
      4742 MEMB     38       DOPC     C313     CTL2    -0.180000       12.0110           0
      4743 MEMB     38       DOPC     H13X     HAL2     0.900000E-01   1.00800           0
      4744 MEMB     38       DOPC     H13Y     HAL2     0.900000E-01   1.00800           0
      4745 MEMB     38       DOPC     C314     CTL2    -0.180000       12.0110           0
      4746 MEMB     38       DOPC     H14X     HAL2     0.900000E-01   1.00800           0
      4747 MEMB     38       DOPC     H14Y     HAL2     0.900000E-01   1.00800           0
      4748 MEMB     38       DOPC     C315     CTL2    -0.180000       12.0110           0
      4749 MEMB     38       DOPC     H15X     HAL2     0.900000E-01   1.00800           0
      4750 MEMB     38       DOPC     H15Y     HAL2     0.900000E-01   1.00800           0
      4751 MEMB     38       DOPC     C316     CTL2    -0.180000       12.0110           0
      4752 MEMB     38       DOPC     H16X     HAL2     0.900000E-01   1.00800           0
      4753 MEMB     38       DOPC     H16Y     HAL2     0.900000E-01   1.00800           0
      4754 MEMB     38       DOPC     C317     CTL2    -0.180000       12.0110           0
      4755 MEMB     38       DOPC     H17X     HAL2     0.900000E-01   1.00800           0
      4756 MEMB     38       DOPC     H17Y     HAL2     0.900000E-01   1.00800           0
      4757 MEMB     38       DOPC     C318     CTL3    -0.270000       12.0110           0
      4758 MEMB     38       DOPC     H18X     HAL3     0.900000E-01   1.00800           0
      4759 MEMB     38       DOPC     H18Y     HAL3     0.900000E-01   1.00800           0
      4760 MEMB     38       DOPC     H18Z     HAL3     0.900000E-01   1.00800           0
      4761 MEMB     39       DOPE     N        NH3L    -0.300000       14.0070           0
      4762 MEMB     39       DOPE     HN1      HCL      0.330000       1.00800           0
      4763 MEMB     39       DOPE     HN2      HCL      0.330000       1.00800           0
      4764 MEMB     39       DOPE     HN3      HCL      0.330000       1.00800           0
      4765 MEMB     39       DOPE     C12      CTL2     0.130000       12.0110           0
      4766 MEMB     39       DOPE     H12A     HAL2     0.900000E-01   1.00800           0
      4767 MEMB     39       DOPE     H12B     HAL2     0.900000E-01   1.00800           0
      4768 MEMB     39       DOPE     C11      CTL2    -0.800000E-01   12.0110           0
      4769 MEMB     39       DOPE     H11A     HAL2     0.900000E-01   1.00800           0
      4770 MEMB     39       DOPE     H11B     HAL2     0.900000E-01   1.00800           0
      4771 MEMB     39       DOPE     P        PL        1.50000       30.9740           0
      4772 MEMB     39       DOPE     O13      O2L     -0.780000       15.9994           0
      4773 MEMB     39       DOPE     O14      O2L     -0.780000       15.9994           0
      4774 MEMB     39       DOPE     O11      OSLP    -0.570000       15.9994           0
      4775 MEMB     39       DOPE     O12      OSLP    -0.570000       15.9994           0
      4776 MEMB     39       DOPE     C1       CTL2    -0.800000E-01   12.0110           0
      4777 MEMB     39       DOPE     HA       HAL2     0.900000E-01   1.00800           0
      4778 MEMB     39       DOPE     HB       HAL2     0.900000E-01   1.00800           0
      4779 MEMB     39       DOPE     C2       CTL1     0.170000       12.0110           0
      4780 MEMB     39       DOPE     HS       HAL1     0.900000E-01   1.00800           0
      4781 MEMB     39       DOPE     O21      OSL     -0.490000       15.9994           0
      4782 MEMB     39       DOPE     C21      CL       0.900000       12.0110           0
      4783 MEMB     39       DOPE     O22      OBL     -0.630000       15.9994           0
      4784 MEMB     39       DOPE     C22      CTL2    -0.220000       12.0110           0
      4785 MEMB     39       DOPE     H2R      HAL2     0.900000E-01   1.00800           0
      4786 MEMB     39       DOPE     H2S      HAL2     0.900000E-01   1.00800           0
      4787 MEMB     39       DOPE     C3       CTL2     0.800000E-01   12.0110           0
      4788 MEMB     39       DOPE     HX       HAL2     0.900000E-01   1.00800           0
      4789 MEMB     39       DOPE     HY       HAL2     0.900000E-01   1.00800           0
      4790 MEMB     39       DOPE     O31      OSL     -0.490000       15.9994           0
      4791 MEMB     39       DOPE     C31      CL       0.900000       12.0110           0
      4792 MEMB     39       DOPE     O32      OBL     -0.630000       15.9994           0
      4793 MEMB     39       DOPE     C32      CTL2    -0.220000       12.0110           0
      4794 MEMB     39       DOPE     H2X      HAL2     0.900000E-01   1.00800           0
      4795 MEMB     39       DOPE     H2Y      HAL2     0.900000E-01   1.00800           0
      4796 MEMB     39       DOPE     C23      CTL2    -0.180000       12.0110           0
      4797 MEMB     39       DOPE     H3R      HAL2     0.900000E-01   1.00800           0
      4798 MEMB     39       DOPE     H3S      HAL2     0.900000E-01   1.00800           0
      4799 MEMB     39       DOPE     C24      CTL2    -0.180000       12.0110           0
      4800 MEMB     39       DOPE     H4R      HAL2     0.900000E-01   1.00800           0
      4801 MEMB     39       DOPE     H4S      HAL2     0.900000E-01   1.00800           0
      4802 MEMB     39       DOPE     C25      CTL2    -0.180000       12.0110           0
      4803 MEMB     39       DOPE     H5R      HAL2     0.900000E-01   1.00800           0
      4804 MEMB     39       DOPE     H5S      HAL2     0.900000E-01   1.00800           0
      4805 MEMB     39       DOPE     C26      CTL2    -0.180000       12.0110           0
      4806 MEMB     39       DOPE     H6R      HAL2     0.900000E-01   1.00800           0
      4807 MEMB     39       DOPE     H6S      HAL2     0.900000E-01   1.00800           0
      4808 MEMB     39       DOPE     C27      CTL2    -0.180000       12.0110           0
      4809 MEMB     39       DOPE     H7R      HAL2     0.900000E-01   1.00800           0
      4810 MEMB     39       DOPE     H7S      HAL2     0.900000E-01   1.00800           0
      4811 MEMB     39       DOPE     C28      CTL2    -0.180000       12.0110           0
      4812 MEMB     39       DOPE     H8R      HAL2     0.900000E-01   1.00800           0
      4813 MEMB     39       DOPE     H8S      HAL2     0.900000E-01   1.00800           0
      4814 MEMB     39       DOPE     C29      CEL1    -0.150000       12.0110           0
      4815 MEMB     39       DOPE     H9R      HEL1     0.150000       1.00800           0
      4816 MEMB     39       DOPE     C210     CEL1    -0.150000       12.0110           0
      4817 MEMB     39       DOPE     H10R     HEL1     0.150000       1.00800           0
      4818 MEMB     39       DOPE     C211     CTL2    -0.180000       12.0110           0
      4819 MEMB     39       DOPE     H11R     HAL2     0.900000E-01   1.00800           0
      4820 MEMB     39       DOPE     H11S     HAL2     0.900000E-01   1.00800           0
      4821 MEMB     39       DOPE     C212     CTL2    -0.180000       12.0110           0
      4822 MEMB     39       DOPE     H12R     HAL2     0.900000E-01   1.00800           0
      4823 MEMB     39       DOPE     H12S     HAL2     0.900000E-01   1.00800           0
      4824 MEMB     39       DOPE     C213     CTL2    -0.180000       12.0110           0
      4825 MEMB     39       DOPE     H13R     HAL2     0.900000E-01   1.00800           0
      4826 MEMB     39       DOPE     H13S     HAL2     0.900000E-01   1.00800           0
      4827 MEMB     39       DOPE     C214     CTL2    -0.180000       12.0110           0
      4828 MEMB     39       DOPE     H14R     HAL2     0.900000E-01   1.00800           0
      4829 MEMB     39       DOPE     H14S     HAL2     0.900000E-01   1.00800           0
      4830 MEMB     39       DOPE     C215     CTL2    -0.180000       12.0110           0
      4831 MEMB     39       DOPE     H15R     HAL2     0.900000E-01   1.00800           0
      4832 MEMB     39       DOPE     H15S     HAL2     0.900000E-01   1.00800           0
      4833 MEMB     39       DOPE     C216     CTL2    -0.180000       12.0110           0
      4834 MEMB     39       DOPE     H16R     HAL2     0.900000E-01   1.00800           0
      4835 MEMB     39       DOPE     H16S     HAL2     0.900000E-01   1.00800           0
      4836 MEMB     39       DOPE     C217     CTL2    -0.180000       12.0110           0
      4837 MEMB     39       DOPE     H17R     HAL2     0.900000E-01   1.00800           0
      4838 MEMB     39       DOPE     H17S     HAL2     0.900000E-01   1.00800           0
      4839 MEMB     39       DOPE     C218     CTL3    -0.270000       12.0110           0
      4840 MEMB     39       DOPE     H18R     HAL3     0.900000E-01   1.00800           0
      4841 MEMB     39       DOPE     H18S     HAL3     0.900000E-01   1.00800           0
      4842 MEMB     39       DOPE     H18T     HAL3     0.900000E-01   1.00800           0
      4843 MEMB     39       DOPE     C33      CTL2    -0.180000       12.0110           0
      4844 MEMB     39       DOPE     H3X      HAL2     0.900000E-01   1.00800           0
      4845 MEMB     39       DOPE     H3Y      HAL2     0.900000E-01   1.00800           0
      4846 MEMB     39       DOPE     C34      CTL2    -0.180000       12.0110           0
      4847 MEMB     39       DOPE     H4X      HAL2     0.900000E-01   1.00800           0
      4848 MEMB     39       DOPE     H4Y      HAL2     0.900000E-01   1.00800           0
      4849 MEMB     39       DOPE     C35      CTL2    -0.180000       12.0110           0
      4850 MEMB     39       DOPE     H5X      HAL2     0.900000E-01   1.00800           0
      4851 MEMB     39       DOPE     H5Y      HAL2     0.900000E-01   1.00800           0
      4852 MEMB     39       DOPE     C36      CTL2    -0.180000       12.0110           0
      4853 MEMB     39       DOPE     H6X      HAL2     0.900000E-01   1.00800           0
      4854 MEMB     39       DOPE     H6Y      HAL2     0.900000E-01   1.00800           0
      4855 MEMB     39       DOPE     C37      CTL2    -0.180000       12.0110           0
      4856 MEMB     39       DOPE     H7X      HAL2     0.900000E-01   1.00800           0
      4857 MEMB     39       DOPE     H7Y      HAL2     0.900000E-01   1.00800           0
      4858 MEMB     39       DOPE     C38      CTL2    -0.180000       12.0110           0
      4859 MEMB     39       DOPE     H8X      HAL2     0.900000E-01   1.00800           0
      4860 MEMB     39       DOPE     H8Y      HAL2     0.900000E-01   1.00800           0
      4861 MEMB     39       DOPE     C39      CEL1    -0.150000       12.0110           0
      4862 MEMB     39       DOPE     H9X      HEL1     0.150000       1.00800           0
      4863 MEMB     39       DOPE     C310     CEL1    -0.150000       12.0110           0
      4864 MEMB     39       DOPE     H10X     HEL1     0.150000       1.00800           0
      4865 MEMB     39       DOPE     C311     CTL2    -0.180000       12.0110           0
      4866 MEMB     39       DOPE     H11X     HAL2     0.900000E-01   1.00800           0
      4867 MEMB     39       DOPE     H11Y     HAL2     0.900000E-01   1.00800           0
      4868 MEMB     39       DOPE     C312     CTL2    -0.180000       12.0110           0
      4869 MEMB     39       DOPE     H12X     HAL2     0.900000E-01   1.00800           0
      4870 MEMB     39       DOPE     H12Y     HAL2     0.900000E-01   1.00800           0
      4871 MEMB     39       DOPE     C313     CTL2    -0.180000       12.0110           0
      4872 MEMB     39       DOPE     H13X     HAL2     0.900000E-01   1.00800           0
      4873 MEMB     39       DOPE     H13Y     HAL2     0.900000E-01   1.00800           0
      4874 MEMB     39       DOPE     C314     CTL2    -0.180000       12.0110           0
      4875 MEMB     39       DOPE     H14X     HAL2     0.900000E-01   1.00800           0
      4876 MEMB     39       DOPE     H14Y     HAL2     0.900000E-01   1.00800           0
      4877 MEMB     39       DOPE     C315     CTL2    -0.180000       12.0110           0
      4878 MEMB     39       DOPE     H15X     HAL2     0.900000E-01   1.00800           0
      4879 MEMB     39       DOPE     H15Y     HAL2     0.900000E-01   1.00800           0
      4880 MEMB     39       DOPE     C316     CTL2    -0.180000       12.0110           0
      4881 MEMB     39       DOPE     H16X     HAL2     0.900000E-01   1.00800           0
      4882 MEMB     39       DOPE     H16Y     HAL2     0.900000E-01   1.00800           0
      4883 MEMB     39       DOPE     C317     CTL2    -0.180000       12.0110           0
      4884 MEMB     39       DOPE     H17X     HAL2     0.900000E-01   1.00800           0
      4885 MEMB     39       DOPE     H17Y     HAL2     0.900000E-01   1.00800           0
      4886 MEMB     39       DOPE     C318     CTL3    -0.270000       12.0110           0
      4887 MEMB     39       DOPE     H18X     HAL3     0.900000E-01   1.00800           0
      4888 MEMB     39       DOPE     H18Y     HAL3     0.900000E-01   1.00800           0
      4889 MEMB     39       DOPE     H18Z     HAL3     0.900000E-01   1.00800           0
      4890 MEMB     40       CHL1     C3       CRL1     0.140000       12.0110           0
      4891 MEMB     40       CHL1     H3       HGA1     0.900000E-01   1.00800           0
      4892 MEMB     40       CHL1     O3       OHL     -0.660000       15.9994           0
      4893 MEMB     40       CHL1     H3'      HOL      0.430000       1.00800           0
      4894 MEMB     40       CHL1     C4       CRL2    -0.180000       12.0110           0
      4895 MEMB     40       CHL1     H4A      HGA2     0.900000E-01   1.00800           0
      4896 MEMB     40       CHL1     H4B      HGA2     0.900000E-01   1.00800           0
      4897 MEMB     40       CHL1     C5       CEL1      0.00000       12.0110           0
      4898 MEMB     40       CHL1     C6       CEL1    -0.150000       12.0110           0
      4899 MEMB     40       CHL1     H6       HEL1     0.150000       1.00800           0
      4900 MEMB     40       CHL1     C7       CRL2    -0.180000       12.0110           0
      4901 MEMB     40       CHL1     H7A      HGA2     0.900000E-01   1.00800           0
      4902 MEMB     40       CHL1     H7B      HGA2     0.900000E-01   1.00800           0
      4903 MEMB     40       CHL1     C8       CRL1    -0.900000E-01   12.0110           0
      4904 MEMB     40       CHL1     H8       HGA1     0.900000E-01   1.00800           0
      4905 MEMB     40       CHL1     C14      CRL1    -0.900000E-01   12.0110           0
      4906 MEMB     40       CHL1     H14      HGA1     0.900000E-01   1.00800           0
      4907 MEMB     40       CHL1     C15      CRL2    -0.180000       12.0110           0
      4908 MEMB     40       CHL1     H15A     HGA2     0.900000E-01   1.00800           0
      4909 MEMB     40       CHL1     H15B     HGA2     0.900000E-01   1.00800           0
      4910 MEMB     40       CHL1     C16      CRL2    -0.180000       12.0110           0
      4911 MEMB     40       CHL1     H16A     HGA2     0.900000E-01   1.00800           0
      4912 MEMB     40       CHL1     H16B     HGA2     0.900000E-01   1.00800           0
      4913 MEMB     40       CHL1     C17      CRL1    -0.900000E-01   12.0110           0
      4914 MEMB     40       CHL1     H17      HGA1     0.900000E-01   1.00800           0
      4915 MEMB     40       CHL1     C13      CRL1      0.00000       12.0110           0
      4916 MEMB     40       CHL1     C18      CTL3    -0.270000       12.0110           0
      4917 MEMB     40       CHL1     H18A     HAL3     0.900000E-01   1.00800           0
      4918 MEMB     40       CHL1     H18B     HAL3     0.900000E-01   1.00800           0
      4919 MEMB     40       CHL1     H18C     HAL3     0.900000E-01   1.00800           0
      4920 MEMB     40       CHL1     C12      CRL2    -0.180000       12.0110           0
      4921 MEMB     40       CHL1     H12A     HGA2     0.900000E-01   1.00800           0
      4922 MEMB     40       CHL1     H12B     HGA2     0.900000E-01   1.00800           0
      4923 MEMB     40       CHL1     C11      CRL2    -0.180000       12.0110           0
      4924 MEMB     40       CHL1     H11A     HGA2     0.900000E-01   1.00800           0
      4925 MEMB     40       CHL1     H11B     HGA2     0.900000E-01   1.00800           0
      4926 MEMB     40       CHL1     C9       CRL1    -0.900000E-01   12.0110           0
      4927 MEMB     40       CHL1     H9       HGA1     0.900000E-01   1.00800           0
      4928 MEMB     40       CHL1     C10      CRL1      0.00000       12.0110           0
      4929 MEMB     40       CHL1     C19      CTL3    -0.270000       12.0110           0
      4930 MEMB     40       CHL1     H19A     HAL3     0.900000E-01   1.00800           0
      4931 MEMB     40       CHL1     H19B     HAL3     0.900000E-01   1.00800           0
      4932 MEMB     40       CHL1     H19C     HAL3     0.900000E-01   1.00800           0
      4933 MEMB     40       CHL1     C1       CRL2    -0.180000       12.0110           0
      4934 MEMB     40       CHL1     H1A      HGA2     0.900000E-01   1.00800           0
      4935 MEMB     40       CHL1     H1B      HGA2     0.900000E-01   1.00800           0
      4936 MEMB     40       CHL1     C2       CRL2    -0.180000       12.0110           0
      4937 MEMB     40       CHL1     H2A      HGA2     0.900000E-01   1.00800           0
      4938 MEMB     40       CHL1     H2B      HGA2     0.900000E-01   1.00800           0
      4939 MEMB     40       CHL1     C20      CTL1    -0.900000E-01   12.0110           0
      4940 MEMB     40       CHL1     H20      HAL1     0.900000E-01   1.00800           0
      4941 MEMB     40       CHL1     C21      CTL3    -0.270000       12.0110           0
      4942 MEMB     40       CHL1     H21A     HAL3     0.900000E-01   1.00800           0
      4943 MEMB     40       CHL1     H21B     HAL3     0.900000E-01   1.00800           0
      4944 MEMB     40       CHL1     H21C     HAL3     0.900000E-01   1.00800           0
      4945 MEMB     40       CHL1     C22      CTL2    -0.180000       12.0110           0
      4946 MEMB     40       CHL1     H22A     HAL2     0.900000E-01   1.00800           0
      4947 MEMB     40       CHL1     H22B     HAL2     0.900000E-01   1.00800           0
      4948 MEMB     40       CHL1     C23      CTL2    -0.180000       12.0110           0
      4949 MEMB     40       CHL1     H23A     HAL2     0.900000E-01   1.00800           0
      4950 MEMB     40       CHL1     H23B     HAL2     0.900000E-01   1.00800           0
      4951 MEMB     40       CHL1     C24      CTL2    -0.180000       12.0110           0
      4952 MEMB     40       CHL1     H24A     HAL2     0.900000E-01   1.00800           0
      4953 MEMB     40       CHL1     H24B     HAL2     0.900000E-01   1.00800           0
      4954 MEMB     40       CHL1     C25      CTL1    -0.900000E-01   12.0110           0
      4955 MEMB     40       CHL1     H25      HAL1     0.900000E-01   1.00800           0
      4956 MEMB     40       CHL1     C26      CTL3    -0.270000       12.0110           0
      4957 MEMB     40       CHL1     H26A     HAL3     0.900000E-01   1.00800           0
      4958 MEMB     40       CHL1     H26B     HAL3     0.900000E-01   1.00800           0
      4959 MEMB     40       CHL1     H26C     HAL3     0.900000E-01   1.00800           0
      4960 MEMB     40       CHL1     C27      CTL3    -0.270000       12.0110           0
      4961 MEMB     40       CHL1     H27A     HAL3     0.900000E-01   1.00800           0
      4962 MEMB     40       CHL1     H27B     HAL3     0.900000E-01   1.00800           0
      4963 MEMB     40       CHL1     H27C     HAL3     0.900000E-01   1.00800           0
      4964 MEMB     41       DOPE     N        NH3L    -0.300000       14.0070           0
      4965 MEMB     41       DOPE     HN1      HCL      0.330000       1.00800           0
      4966 MEMB     41       DOPE     HN2      HCL      0.330000       1.00800           0
      4967 MEMB     41       DOPE     HN3      HCL      0.330000       1.00800           0
      4968 MEMB     41       DOPE     C12      CTL2     0.130000       12.0110           0
      4969 MEMB     41       DOPE     H12A     HAL2     0.900000E-01   1.00800           0
      4970 MEMB     41       DOPE     H12B     HAL2     0.900000E-01   1.00800           0
      4971 MEMB     41       DOPE     C11      CTL2    -0.800000E-01   12.0110           0
      4972 MEMB     41       DOPE     H11A     HAL2     0.900000E-01   1.00800           0
      4973 MEMB     41       DOPE     H11B     HAL2     0.900000E-01   1.00800           0
      4974 MEMB     41       DOPE     P        PL        1.50000       30.9740           0
      4975 MEMB     41       DOPE     O13      O2L     -0.780000       15.9994           0
      4976 MEMB     41       DOPE     O14      O2L     -0.780000       15.9994           0
      4977 MEMB     41       DOPE     O11      OSLP    -0.570000       15.9994           0
      4978 MEMB     41       DOPE     O12      OSLP    -0.570000       15.9994           0
      4979 MEMB     41       DOPE     C1       CTL2    -0.800000E-01   12.0110           0
      4980 MEMB     41       DOPE     HA       HAL2     0.900000E-01   1.00800           0
      4981 MEMB     41       DOPE     HB       HAL2     0.900000E-01   1.00800           0
      4982 MEMB     41       DOPE     C2       CTL1     0.170000       12.0110           0
      4983 MEMB     41       DOPE     HS       HAL1     0.900000E-01   1.00800           0
      4984 MEMB     41       DOPE     O21      OSL     -0.490000       15.9994           0
      4985 MEMB     41       DOPE     C21      CL       0.900000       12.0110           0
      4986 MEMB     41       DOPE     O22      OBL     -0.630000       15.9994           0
      4987 MEMB     41       DOPE     C22      CTL2    -0.220000       12.0110           0
      4988 MEMB     41       DOPE     H2R      HAL2     0.900000E-01   1.00800           0
      4989 MEMB     41       DOPE     H2S      HAL2     0.900000E-01   1.00800           0
      4990 MEMB     41       DOPE     C3       CTL2     0.800000E-01   12.0110           0
      4991 MEMB     41       DOPE     HX       HAL2     0.900000E-01   1.00800           0
      4992 MEMB     41       DOPE     HY       HAL2     0.900000E-01   1.00800           0
      4993 MEMB     41       DOPE     O31      OSL     -0.490000       15.9994           0
      4994 MEMB     41       DOPE     C31      CL       0.900000       12.0110           0
      4995 MEMB     41       DOPE     O32      OBL     -0.630000       15.9994           0
      4996 MEMB     41       DOPE     C32      CTL2    -0.220000       12.0110           0
      4997 MEMB     41       DOPE     H2X      HAL2     0.900000E-01   1.00800           0
      4998 MEMB     41       DOPE     H2Y      HAL2     0.900000E-01   1.00800           0
      4999 MEMB     41       DOPE     C23      CTL2    -0.180000       12.0110           0
      5000 MEMB     41       DOPE     H3R      HAL2     0.900000E-01   1.00800           0
      5001 MEMB     41       DOPE     H3S      HAL2     0.900000E-01   1.00800           0
      5002 MEMB     41       DOPE     C24      CTL2    -0.180000       12.0110           0
      5003 MEMB     41       DOPE     H4R      HAL2     0.900000E-01   1.00800           0
      5004 MEMB     41       DOPE     H4S      HAL2     0.900000E-01   1.00800           0
      5005 MEMB     41       DOPE     C25      CTL2    -0.180000       12.0110           0
      5006 MEMB     41       DOPE     H5R      HAL2     0.900000E-01   1.00800           0
      5007 MEMB     41       DOPE     H5S      HAL2     0.900000E-01   1.00800           0
      5008 MEMB     41       DOPE     C26      CTL2    -0.180000       12.0110           0
      5009 MEMB     41       DOPE     H6R      HAL2     0.900000E-01   1.00800           0
      5010 MEMB     41       DOPE     H6S      HAL2     0.900000E-01   1.00800           0
      5011 MEMB     41       DOPE     C27      CTL2    -0.180000       12.0110           0
      5012 MEMB     41       DOPE     H7R      HAL2     0.900000E-01   1.00800           0
      5013 MEMB     41       DOPE     H7S      HAL2     0.900000E-01   1.00800           0
      5014 MEMB     41       DOPE     C28      CTL2    -0.180000       12.0110           0
      5015 MEMB     41       DOPE     H8R      HAL2     0.900000E-01   1.00800           0
      5016 MEMB     41       DOPE     H8S      HAL2     0.900000E-01   1.00800           0
      5017 MEMB     41       DOPE     C29      CEL1    -0.150000       12.0110           0
      5018 MEMB     41       DOPE     H9R      HEL1     0.150000       1.00800           0
      5019 MEMB     41       DOPE     C210     CEL1    -0.150000       12.0110           0
      5020 MEMB     41       DOPE     H10R     HEL1     0.150000       1.00800           0
      5021 MEMB     41       DOPE     C211     CTL2    -0.180000       12.0110           0
      5022 MEMB     41       DOPE     H11R     HAL2     0.900000E-01   1.00800           0
      5023 MEMB     41       DOPE     H11S     HAL2     0.900000E-01   1.00800           0
      5024 MEMB     41       DOPE     C212     CTL2    -0.180000       12.0110           0
      5025 MEMB     41       DOPE     H12R     HAL2     0.900000E-01   1.00800           0
      5026 MEMB     41       DOPE     H12S     HAL2     0.900000E-01   1.00800           0
      5027 MEMB     41       DOPE     C213     CTL2    -0.180000       12.0110           0
      5028 MEMB     41       DOPE     H13R     HAL2     0.900000E-01   1.00800           0
      5029 MEMB     41       DOPE     H13S     HAL2     0.900000E-01   1.00800           0
      5030 MEMB     41       DOPE     C214     CTL2    -0.180000       12.0110           0
      5031 MEMB     41       DOPE     H14R     HAL2     0.900000E-01   1.00800           0
      5032 MEMB     41       DOPE     H14S     HAL2     0.900000E-01   1.00800           0
      5033 MEMB     41       DOPE     C215     CTL2    -0.180000       12.0110           0
      5034 MEMB     41       DOPE     H15R     HAL2     0.900000E-01   1.00800           0
      5035 MEMB     41       DOPE     H15S     HAL2     0.900000E-01   1.00800           0
      5036 MEMB     41       DOPE     C216     CTL2    -0.180000       12.0110           0
      5037 MEMB     41       DOPE     H16R     HAL2     0.900000E-01   1.00800           0
      5038 MEMB     41       DOPE     H16S     HAL2     0.900000E-01   1.00800           0
      5039 MEMB     41       DOPE     C217     CTL2    -0.180000       12.0110           0
      5040 MEMB     41       DOPE     H17R     HAL2     0.900000E-01   1.00800           0
      5041 MEMB     41       DOPE     H17S     HAL2     0.900000E-01   1.00800           0
      5042 MEMB     41       DOPE     C218     CTL3    -0.270000       12.0110           0
      5043 MEMB     41       DOPE     H18R     HAL3     0.900000E-01   1.00800           0
      5044 MEMB     41       DOPE     H18S     HAL3     0.900000E-01   1.00800           0
      5045 MEMB     41       DOPE     H18T     HAL3     0.900000E-01   1.00800           0
      5046 MEMB     41       DOPE     C33      CTL2    -0.180000       12.0110           0
      5047 MEMB     41       DOPE     H3X      HAL2     0.900000E-01   1.00800           0
      5048 MEMB     41       DOPE     H3Y      HAL2     0.900000E-01   1.00800           0
      5049 MEMB     41       DOPE     C34      CTL2    -0.180000       12.0110           0
      5050 MEMB     41       DOPE     H4X      HAL2     0.900000E-01   1.00800           0
      5051 MEMB     41       DOPE     H4Y      HAL2     0.900000E-01   1.00800           0
      5052 MEMB     41       DOPE     C35      CTL2    -0.180000       12.0110           0
      5053 MEMB     41       DOPE     H5X      HAL2     0.900000E-01   1.00800           0
      5054 MEMB     41       DOPE     H5Y      HAL2     0.900000E-01   1.00800           0
      5055 MEMB     41       DOPE     C36      CTL2    -0.180000       12.0110           0
      5056 MEMB     41       DOPE     H6X      HAL2     0.900000E-01   1.00800           0
      5057 MEMB     41       DOPE     H6Y      HAL2     0.900000E-01   1.00800           0
      5058 MEMB     41       DOPE     C37      CTL2    -0.180000       12.0110           0
      5059 MEMB     41       DOPE     H7X      HAL2     0.900000E-01   1.00800           0
      5060 MEMB     41       DOPE     H7Y      HAL2     0.900000E-01   1.00800           0
      5061 MEMB     41       DOPE     C38      CTL2    -0.180000       12.0110           0
      5062 MEMB     41       DOPE     H8X      HAL2     0.900000E-01   1.00800           0
      5063 MEMB     41       DOPE     H8Y      HAL2     0.900000E-01   1.00800           0
      5064 MEMB     41       DOPE     C39      CEL1    -0.150000       12.0110           0
      5065 MEMB     41       DOPE     H9X      HEL1     0.150000       1.00800           0
      5066 MEMB     41       DOPE     C310     CEL1    -0.150000       12.0110           0
      5067 MEMB     41       DOPE     H10X     HEL1     0.150000       1.00800           0
      5068 MEMB     41       DOPE     C311     CTL2    -0.180000       12.0110           0
      5069 MEMB     41       DOPE     H11X     HAL2     0.900000E-01   1.00800           0
      5070 MEMB     41       DOPE     H11Y     HAL2     0.900000E-01   1.00800           0
      5071 MEMB     41       DOPE     C312     CTL2    -0.180000       12.0110           0
      5072 MEMB     41       DOPE     H12X     HAL2     0.900000E-01   1.00800           0
      5073 MEMB     41       DOPE     H12Y     HAL2     0.900000E-01   1.00800           0
      5074 MEMB     41       DOPE     C313     CTL2    -0.180000       12.0110           0
      5075 MEMB     41       DOPE     H13X     HAL2     0.900000E-01   1.00800           0
      5076 MEMB     41       DOPE     H13Y     HAL2     0.900000E-01   1.00800           0
      5077 MEMB     41       DOPE     C314     CTL2    -0.180000       12.0110           0
      5078 MEMB     41       DOPE     H14X     HAL2     0.900000E-01   1.00800           0
      5079 MEMB     41       DOPE     H14Y     HAL2     0.900000E-01   1.00800           0
      5080 MEMB     41       DOPE     C315     CTL2    -0.180000       12.0110           0
      5081 MEMB     41       DOPE     H15X     HAL2     0.900000E-01   1.00800           0
      5082 MEMB     41       DOPE     H15Y     HAL2     0.900000E-01   1.00800           0
      5083 MEMB     41       DOPE     C316     CTL2    -0.180000       12.0110           0
      5084 MEMB     41       DOPE     H16X     HAL2     0.900000E-01   1.00800           0
      5085 MEMB     41       DOPE     H16Y     HAL2     0.900000E-01   1.00800           0
      5086 MEMB     41       DOPE     C317     CTL2    -0.180000       12.0110           0
      5087 MEMB     41       DOPE     H17X     HAL2     0.900000E-01   1.00800           0
      5088 MEMB     41       DOPE     H17Y     HAL2     0.900000E-01   1.00800           0
      5089 MEMB     41       DOPE     C318     CTL3    -0.270000       12.0110           0
      5090 MEMB     41       DOPE     H18X     HAL3     0.900000E-01   1.00800           0
      5091 MEMB     41       DOPE     H18Y     HAL3     0.900000E-01   1.00800           0
      5092 MEMB     41       DOPE     H18Z     HAL3     0.900000E-01   1.00800           0
      5093 MEMB     42       DOPE     N        NH3L    -0.300000       14.0070           0
      5094 MEMB     42       DOPE     HN1      HCL      0.330000       1.00800           0
      5095 MEMB     42       DOPE     HN2      HCL      0.330000       1.00800           0
      5096 MEMB     42       DOPE     HN3      HCL      0.330000       1.00800           0
      5097 MEMB     42       DOPE     C12      CTL2     0.130000       12.0110           0
      5098 MEMB     42       DOPE     H12A     HAL2     0.900000E-01   1.00800           0
      5099 MEMB     42       DOPE     H12B     HAL2     0.900000E-01   1.00800           0
      5100 MEMB     42       DOPE     C11      CTL2    -0.800000E-01   12.0110           0
      5101 MEMB     42       DOPE     H11A     HAL2     0.900000E-01   1.00800           0
      5102 MEMB     42       DOPE     H11B     HAL2     0.900000E-01   1.00800           0
      5103 MEMB     42       DOPE     P        PL        1.50000       30.9740           0
      5104 MEMB     42       DOPE     O13      O2L     -0.780000       15.9994           0
      5105 MEMB     42       DOPE     O14      O2L     -0.780000       15.9994           0
      5106 MEMB     42       DOPE     O11      OSLP    -0.570000       15.9994           0
      5107 MEMB     42       DOPE     O12      OSLP    -0.570000       15.9994           0
      5108 MEMB     42       DOPE     C1       CTL2    -0.800000E-01   12.0110           0
      5109 MEMB     42       DOPE     HA       HAL2     0.900000E-01   1.00800           0
      5110 MEMB     42       DOPE     HB       HAL2     0.900000E-01   1.00800           0
      5111 MEMB     42       DOPE     C2       CTL1     0.170000       12.0110           0
      5112 MEMB     42       DOPE     HS       HAL1     0.900000E-01   1.00800           0
      5113 MEMB     42       DOPE     O21      OSL     -0.490000       15.9994           0
      5114 MEMB     42       DOPE     C21      CL       0.900000       12.0110           0
      5115 MEMB     42       DOPE     O22      OBL     -0.630000       15.9994           0
      5116 MEMB     42       DOPE     C22      CTL2    -0.220000       12.0110           0
      5117 MEMB     42       DOPE     H2R      HAL2     0.900000E-01   1.00800           0
      5118 MEMB     42       DOPE     H2S      HAL2     0.900000E-01   1.00800           0
      5119 MEMB     42       DOPE     C3       CTL2     0.800000E-01   12.0110           0
      5120 MEMB     42       DOPE     HX       HAL2     0.900000E-01   1.00800           0
      5121 MEMB     42       DOPE     HY       HAL2     0.900000E-01   1.00800           0
      5122 MEMB     42       DOPE     O31      OSL     -0.490000       15.9994           0
      5123 MEMB     42       DOPE     C31      CL       0.900000       12.0110           0
      5124 MEMB     42       DOPE     O32      OBL     -0.630000       15.9994           0
      5125 MEMB     42       DOPE     C32      CTL2    -0.220000       12.0110           0
      5126 MEMB     42       DOPE     H2X      HAL2     0.900000E-01   1.00800           0
      5127 MEMB     42       DOPE     H2Y      HAL2     0.900000E-01   1.00800           0
      5128 MEMB     42       DOPE     C23      CTL2    -0.180000       12.0110           0
      5129 MEMB     42       DOPE     H3R      HAL2     0.900000E-01   1.00800           0
      5130 MEMB     42       DOPE     H3S      HAL2     0.900000E-01   1.00800           0
      5131 MEMB     42       DOPE     C24      CTL2    -0.180000       12.0110           0
      5132 MEMB     42       DOPE     H4R      HAL2     0.900000E-01   1.00800           0
      5133 MEMB     42       DOPE     H4S      HAL2     0.900000E-01   1.00800           0
      5134 MEMB     42       DOPE     C25      CTL2    -0.180000       12.0110           0
      5135 MEMB     42       DOPE     H5R      HAL2     0.900000E-01   1.00800           0
      5136 MEMB     42       DOPE     H5S      HAL2     0.900000E-01   1.00800           0
      5137 MEMB     42       DOPE     C26      CTL2    -0.180000       12.0110           0
      5138 MEMB     42       DOPE     H6R      HAL2     0.900000E-01   1.00800           0
      5139 MEMB     42       DOPE     H6S      HAL2     0.900000E-01   1.00800           0
      5140 MEMB     42       DOPE     C27      CTL2    -0.180000       12.0110           0
      5141 MEMB     42       DOPE     H7R      HAL2     0.900000E-01   1.00800           0
      5142 MEMB     42       DOPE     H7S      HAL2     0.900000E-01   1.00800           0
      5143 MEMB     42       DOPE     C28      CTL2    -0.180000       12.0110           0
      5144 MEMB     42       DOPE     H8R      HAL2     0.900000E-01   1.00800           0
      5145 MEMB     42       DOPE     H8S      HAL2     0.900000E-01   1.00800           0
      5146 MEMB     42       DOPE     C29      CEL1    -0.150000       12.0110           0
      5147 MEMB     42       DOPE     H9R      HEL1     0.150000       1.00800           0
      5148 MEMB     42       DOPE     C210     CEL1    -0.150000       12.0110           0
      5149 MEMB     42       DOPE     H10R     HEL1     0.150000       1.00800           0
      5150 MEMB     42       DOPE     C211     CTL2    -0.180000       12.0110           0
      5151 MEMB     42       DOPE     H11R     HAL2     0.900000E-01   1.00800           0
      5152 MEMB     42       DOPE     H11S     HAL2     0.900000E-01   1.00800           0
      5153 MEMB     42       DOPE     C212     CTL2    -0.180000       12.0110           0
      5154 MEMB     42       DOPE     H12R     HAL2     0.900000E-01   1.00800           0
      5155 MEMB     42       DOPE     H12S     HAL2     0.900000E-01   1.00800           0
      5156 MEMB     42       DOPE     C213     CTL2    -0.180000       12.0110           0
      5157 MEMB     42       DOPE     H13R     HAL2     0.900000E-01   1.00800           0
      5158 MEMB     42       DOPE     H13S     HAL2     0.900000E-01   1.00800           0
      5159 MEMB     42       DOPE     C214     CTL2    -0.180000       12.0110           0
      5160 MEMB     42       DOPE     H14R     HAL2     0.900000E-01   1.00800           0
      5161 MEMB     42       DOPE     H14S     HAL2     0.900000E-01   1.00800           0
      5162 MEMB     42       DOPE     C215     CTL2    -0.180000       12.0110           0
      5163 MEMB     42       DOPE     H15R     HAL2     0.900000E-01   1.00800           0
      5164 MEMB     42       DOPE     H15S     HAL2     0.900000E-01   1.00800           0
      5165 MEMB     42       DOPE     C216     CTL2    -0.180000       12.0110           0
      5166 MEMB     42       DOPE     H16R     HAL2     0.900000E-01   1.00800           0
      5167 MEMB     42       DOPE     H16S     HAL2     0.900000E-01   1.00800           0
      5168 MEMB     42       DOPE     C217     CTL2    -0.180000       12.0110           0
      5169 MEMB     42       DOPE     H17R     HAL2     0.900000E-01   1.00800           0
      5170 MEMB     42       DOPE     H17S     HAL2     0.900000E-01   1.00800           0
      5171 MEMB     42       DOPE     C218     CTL3    -0.270000       12.0110           0
      5172 MEMB     42       DOPE     H18R     HAL3     0.900000E-01   1.00800           0
      5173 MEMB     42       DOPE     H18S     HAL3     0.900000E-01   1.00800           0
      5174 MEMB     42       DOPE     H18T     HAL3     0.900000E-01   1.00800           0
      5175 MEMB     42       DOPE     C33      CTL2    -0.180000       12.0110           0
      5176 MEMB     42       DOPE     H3X      HAL2     0.900000E-01   1.00800           0
      5177 MEMB     42       DOPE     H3Y      HAL2     0.900000E-01   1.00800           0
      5178 MEMB     42       DOPE     C34      CTL2    -0.180000       12.0110           0
      5179 MEMB     42       DOPE     H4X      HAL2     0.900000E-01   1.00800           0
      5180 MEMB     42       DOPE     H4Y      HAL2     0.900000E-01   1.00800           0
      5181 MEMB     42       DOPE     C35      CTL2    -0.180000       12.0110           0
      5182 MEMB     42       DOPE     H5X      HAL2     0.900000E-01   1.00800           0
      5183 MEMB     42       DOPE     H5Y      HAL2     0.900000E-01   1.00800           0
      5184 MEMB     42       DOPE     C36      CTL2    -0.180000       12.0110           0
      5185 MEMB     42       DOPE     H6X      HAL2     0.900000E-01   1.00800           0
      5186 MEMB     42       DOPE     H6Y      HAL2     0.900000E-01   1.00800           0
      5187 MEMB     42       DOPE     C37      CTL2    -0.180000       12.0110           0
      5188 MEMB     42       DOPE     H7X      HAL2     0.900000E-01   1.00800           0
      5189 MEMB     42       DOPE     H7Y      HAL2     0.900000E-01   1.00800           0
      5190 MEMB     42       DOPE     C38      CTL2    -0.180000       12.0110           0
      5191 MEMB     42       DOPE     H8X      HAL2     0.900000E-01   1.00800           0
      5192 MEMB     42       DOPE     H8Y      HAL2     0.900000E-01   1.00800           0
      5193 MEMB     42       DOPE     C39      CEL1    -0.150000       12.0110           0
      5194 MEMB     42       DOPE     H9X      HEL1     0.150000       1.00800           0
      5195 MEMB     42       DOPE     C310     CEL1    -0.150000       12.0110           0
      5196 MEMB     42       DOPE     H10X     HEL1     0.150000       1.00800           0
      5197 MEMB     42       DOPE     C311     CTL2    -0.180000       12.0110           0
      5198 MEMB     42       DOPE     H11X     HAL2     0.900000E-01   1.00800           0
      5199 MEMB     42       DOPE     H11Y     HAL2     0.900000E-01   1.00800           0
      5200 MEMB     42       DOPE     C312     CTL2    -0.180000       12.0110           0
      5201 MEMB     42       DOPE     H12X     HAL2     0.900000E-01   1.00800           0
      5202 MEMB     42       DOPE     H12Y     HAL2     0.900000E-01   1.00800           0
      5203 MEMB     42       DOPE     C313     CTL2    -0.180000       12.0110           0
      5204 MEMB     42       DOPE     H13X     HAL2     0.900000E-01   1.00800           0
      5205 MEMB     42       DOPE     H13Y     HAL2     0.900000E-01   1.00800           0
      5206 MEMB     42       DOPE     C314     CTL2    -0.180000       12.0110           0
      5207 MEMB     42       DOPE     H14X     HAL2     0.900000E-01   1.00800           0
      5208 MEMB     42       DOPE     H14Y     HAL2     0.900000E-01   1.00800           0
      5209 MEMB     42       DOPE     C315     CTL2    -0.180000       12.0110           0
      5210 MEMB     42       DOPE     H15X     HAL2     0.900000E-01   1.00800           0
      5211 MEMB     42       DOPE     H15Y     HAL2     0.900000E-01   1.00800           0
      5212 MEMB     42       DOPE     C316     CTL2    -0.180000       12.0110           0
      5213 MEMB     42       DOPE     H16X     HAL2     0.900000E-01   1.00800           0
      5214 MEMB     42       DOPE     H16Y     HAL2     0.900000E-01   1.00800           0
      5215 MEMB     42       DOPE     C317     CTL2    -0.180000       12.0110           0
      5216 MEMB     42       DOPE     H17X     HAL2     0.900000E-01   1.00800           0
      5217 MEMB     42       DOPE     H17Y     HAL2     0.900000E-01   1.00800           0
      5218 MEMB     42       DOPE     C318     CTL3    -0.270000       12.0110           0
      5219 MEMB     42       DOPE     H18X     HAL3     0.900000E-01   1.00800           0
      5220 MEMB     42       DOPE     H18Y     HAL3     0.900000E-01   1.00800           0
      5221 MEMB     42       DOPE     H18Z     HAL3     0.900000E-01   1.00800           0
      5222 MEMB     43       DOPC     N        NTL     -0.600000       14.0070           0
      5223 MEMB     43       DOPC     C12      CTL2    -0.100000       12.0110           0
      5224 MEMB     43       DOPC     H12A     HL       0.250000       1.00800           0
      5225 MEMB     43       DOPC     H12B     HL       0.250000       1.00800           0
      5226 MEMB     43       DOPC     C13      CTL5    -0.350000       12.0110           0
      5227 MEMB     43       DOPC     H13A     HL       0.250000       1.00800           0
      5228 MEMB     43       DOPC     H13B     HL       0.250000       1.00800           0
      5229 MEMB     43       DOPC     H13C     HL       0.250000       1.00800           0
      5230 MEMB     43       DOPC     C14      CTL5    -0.350000       12.0110           0
      5231 MEMB     43       DOPC     H14A     HL       0.250000       1.00800           0
      5232 MEMB     43       DOPC     H14B     HL       0.250000       1.00800           0
      5233 MEMB     43       DOPC     H14C     HL       0.250000       1.00800           0
      5234 MEMB     43       DOPC     C15      CTL5    -0.350000       12.0110           0
      5235 MEMB     43       DOPC     H15A     HL       0.250000       1.00800           0
      5236 MEMB     43       DOPC     H15B     HL       0.250000       1.00800           0
      5237 MEMB     43       DOPC     H15C     HL       0.250000       1.00800           0
      5238 MEMB     43       DOPC     C11      CTL2    -0.800000E-01   12.0110           0
      5239 MEMB     43       DOPC     H11A     HAL2     0.900000E-01   1.00800           0
      5240 MEMB     43       DOPC     H11B     HAL2     0.900000E-01   1.00800           0
      5241 MEMB     43       DOPC     P        PL        1.50000       30.9740           0
      5242 MEMB     43       DOPC     O13      O2L     -0.780000       15.9994           0
      5243 MEMB     43       DOPC     O14      O2L     -0.780000       15.9994           0
      5244 MEMB     43       DOPC     O12      OSLP    -0.570000       15.9994           0
      5245 MEMB     43       DOPC     O11      OSLP    -0.570000       15.9994           0
      5246 MEMB     43       DOPC     C1       CTL2    -0.800000E-01   12.0110           0
      5247 MEMB     43       DOPC     HA       HAL2     0.900000E-01   1.00800           0
      5248 MEMB     43       DOPC     HB       HAL2     0.900000E-01   1.00800           0
      5249 MEMB     43       DOPC     C2       CTL1     0.170000       12.0110           0
      5250 MEMB     43       DOPC     HS       HAL1     0.900000E-01   1.00800           0
      5251 MEMB     43       DOPC     O21      OSL     -0.490000       15.9994           0
      5252 MEMB     43       DOPC     C21      CL       0.900000       12.0110           0
      5253 MEMB     43       DOPC     O22      OBL     -0.630000       15.9994           0
      5254 MEMB     43       DOPC     C22      CTL2    -0.220000       12.0110           0
      5255 MEMB     43       DOPC     H2R      HAL2     0.900000E-01   1.00800           0
      5256 MEMB     43       DOPC     H2S      HAL2     0.900000E-01   1.00800           0
      5257 MEMB     43       DOPC     C3       CTL2     0.800000E-01   12.0110           0
      5258 MEMB     43       DOPC     HX       HAL2     0.900000E-01   1.00800           0
      5259 MEMB     43       DOPC     HY       HAL2     0.900000E-01   1.00800           0
      5260 MEMB     43       DOPC     O31      OSL     -0.490000       15.9994           0
      5261 MEMB     43       DOPC     C31      CL       0.900000       12.0110           0
      5262 MEMB     43       DOPC     O32      OBL     -0.630000       15.9994           0
      5263 MEMB     43       DOPC     C32      CTL2    -0.220000       12.0110           0
      5264 MEMB     43       DOPC     H2X      HAL2     0.900000E-01   1.00800           0
      5265 MEMB     43       DOPC     H2Y      HAL2     0.900000E-01   1.00800           0
      5266 MEMB     43       DOPC     C23      CTL2    -0.180000       12.0110           0
      5267 MEMB     43       DOPC     H3R      HAL2     0.900000E-01   1.00800           0
      5268 MEMB     43       DOPC     H3S      HAL2     0.900000E-01   1.00800           0
      5269 MEMB     43       DOPC     C24      CTL2    -0.180000       12.0110           0
      5270 MEMB     43       DOPC     H4R      HAL2     0.900000E-01   1.00800           0
      5271 MEMB     43       DOPC     H4S      HAL2     0.900000E-01   1.00800           0
      5272 MEMB     43       DOPC     C25      CTL2    -0.180000       12.0110           0
      5273 MEMB     43       DOPC     H5R      HAL2     0.900000E-01   1.00800           0
      5274 MEMB     43       DOPC     H5S      HAL2     0.900000E-01   1.00800           0
      5275 MEMB     43       DOPC     C26      CTL2    -0.180000       12.0110           0
      5276 MEMB     43       DOPC     H6R      HAL2     0.900000E-01   1.00800           0
      5277 MEMB     43       DOPC     H6S      HAL2     0.900000E-01   1.00800           0
      5278 MEMB     43       DOPC     C27      CTL2    -0.180000       12.0110           0
      5279 MEMB     43       DOPC     H7R      HAL2     0.900000E-01   1.00800           0
      5280 MEMB     43       DOPC     H7S      HAL2     0.900000E-01   1.00800           0
      5281 MEMB     43       DOPC     C28      CTL2    -0.180000       12.0110           0
      5282 MEMB     43       DOPC     H8R      HAL2     0.900000E-01   1.00800           0
      5283 MEMB     43       DOPC     H8S      HAL2     0.900000E-01   1.00800           0
      5284 MEMB     43       DOPC     C29      CEL1    -0.150000       12.0110           0
      5285 MEMB     43       DOPC     H9R      HEL1     0.150000       1.00800           0
      5286 MEMB     43       DOPC     C210     CEL1    -0.150000       12.0110           0
      5287 MEMB     43       DOPC     H10R     HEL1     0.150000       1.00800           0
      5288 MEMB     43       DOPC     C211     CTL2    -0.180000       12.0110           0
      5289 MEMB     43       DOPC     H11R     HAL2     0.900000E-01   1.00800           0
      5290 MEMB     43       DOPC     H11S     HAL2     0.900000E-01   1.00800           0
      5291 MEMB     43       DOPC     C212     CTL2    -0.180000       12.0110           0
      5292 MEMB     43       DOPC     H12R     HAL2     0.900000E-01   1.00800           0
      5293 MEMB     43       DOPC     H12S     HAL2     0.900000E-01   1.00800           0
      5294 MEMB     43       DOPC     C213     CTL2    -0.180000       12.0110           0
      5295 MEMB     43       DOPC     H13R     HAL2     0.900000E-01   1.00800           0
      5296 MEMB     43       DOPC     H13S     HAL2     0.900000E-01   1.00800           0
      5297 MEMB     43       DOPC     C214     CTL2    -0.180000       12.0110           0
      5298 MEMB     43       DOPC     H14R     HAL2     0.900000E-01   1.00800           0
      5299 MEMB     43       DOPC     H14S     HAL2     0.900000E-01   1.00800           0
      5300 MEMB     43       DOPC     C215     CTL2    -0.180000       12.0110           0
      5301 MEMB     43       DOPC     H15R     HAL2     0.900000E-01   1.00800           0
      5302 MEMB     43       DOPC     H15S     HAL2     0.900000E-01   1.00800           0
      5303 MEMB     43       DOPC     C216     CTL2    -0.180000       12.0110           0
      5304 MEMB     43       DOPC     H16R     HAL2     0.900000E-01   1.00800           0
      5305 MEMB     43       DOPC     H16S     HAL2     0.900000E-01   1.00800           0
      5306 MEMB     43       DOPC     C217     CTL2    -0.180000       12.0110           0
      5307 MEMB     43       DOPC     H17R     HAL2     0.900000E-01   1.00800           0
      5308 MEMB     43       DOPC     H17S     HAL2     0.900000E-01   1.00800           0
      5309 MEMB     43       DOPC     C218     CTL3    -0.270000       12.0110           0
      5310 MEMB     43       DOPC     H18R     HAL3     0.900000E-01   1.00800           0
      5311 MEMB     43       DOPC     H18S     HAL3     0.900000E-01   1.00800           0
      5312 MEMB     43       DOPC     H18T     HAL3     0.900000E-01   1.00800           0
      5313 MEMB     43       DOPC     C33      CTL2    -0.180000       12.0110           0
      5314 MEMB     43       DOPC     H3X      HAL2     0.900000E-01   1.00800           0
      5315 MEMB     43       DOPC     H3Y      HAL2     0.900000E-01   1.00800           0
      5316 MEMB     43       DOPC     C34      CTL2    -0.180000       12.0110           0
      5317 MEMB     43       DOPC     H4X      HAL2     0.900000E-01   1.00800           0
      5318 MEMB     43       DOPC     H4Y      HAL2     0.900000E-01   1.00800           0
      5319 MEMB     43       DOPC     C35      CTL2    -0.180000       12.0110           0
      5320 MEMB     43       DOPC     H5X      HAL2     0.900000E-01   1.00800           0
      5321 MEMB     43       DOPC     H5Y      HAL2     0.900000E-01   1.00800           0
      5322 MEMB     43       DOPC     C36      CTL2    -0.180000       12.0110           0
      5323 MEMB     43       DOPC     H6X      HAL2     0.900000E-01   1.00800           0
      5324 MEMB     43       DOPC     H6Y      HAL2     0.900000E-01   1.00800           0
      5325 MEMB     43       DOPC     C37      CTL2    -0.180000       12.0110           0
      5326 MEMB     43       DOPC     H7X      HAL2     0.900000E-01   1.00800           0
      5327 MEMB     43       DOPC     H7Y      HAL2     0.900000E-01   1.00800           0
      5328 MEMB     43       DOPC     C38      CTL2    -0.180000       12.0110           0
      5329 MEMB     43       DOPC     H8X      HAL2     0.900000E-01   1.00800           0
      5330 MEMB     43       DOPC     H8Y      HAL2     0.900000E-01   1.00800           0
      5331 MEMB     43       DOPC     C39      CEL1    -0.150000       12.0110           0
      5332 MEMB     43       DOPC     H9X      HEL1     0.150000       1.00800           0
      5333 MEMB     43       DOPC     C310     CEL1    -0.150000       12.0110           0
      5334 MEMB     43       DOPC     H10X     HEL1     0.150000       1.00800           0
      5335 MEMB     43       DOPC     C311     CTL2    -0.180000       12.0110           0
      5336 MEMB     43       DOPC     H11X     HAL2     0.900000E-01   1.00800           0
      5337 MEMB     43       DOPC     H11Y     HAL2     0.900000E-01   1.00800           0
      5338 MEMB     43       DOPC     C312     CTL2    -0.180000       12.0110           0
      5339 MEMB     43       DOPC     H12X     HAL2     0.900000E-01   1.00800           0
      5340 MEMB     43       DOPC     H12Y     HAL2     0.900000E-01   1.00800           0
      5341 MEMB     43       DOPC     C313     CTL2    -0.180000       12.0110           0
      5342 MEMB     43       DOPC     H13X     HAL2     0.900000E-01   1.00800           0
      5343 MEMB     43       DOPC     H13Y     HAL2     0.900000E-01   1.00800           0
      5344 MEMB     43       DOPC     C314     CTL2    -0.180000       12.0110           0
      5345 MEMB     43       DOPC     H14X     HAL2     0.900000E-01   1.00800           0
      5346 MEMB     43       DOPC     H14Y     HAL2     0.900000E-01   1.00800           0
      5347 MEMB     43       DOPC     C315     CTL2    -0.180000       12.0110           0
      5348 MEMB     43       DOPC     H15X     HAL2     0.900000E-01   1.00800           0
      5349 MEMB     43       DOPC     H15Y     HAL2     0.900000E-01   1.00800           0
      5350 MEMB     43       DOPC     C316     CTL2    -0.180000       12.0110           0
      5351 MEMB     43       DOPC     H16X     HAL2     0.900000E-01   1.00800           0
      5352 MEMB     43       DOPC     H16Y     HAL2     0.900000E-01   1.00800           0
      5353 MEMB     43       DOPC     C317     CTL2    -0.180000       12.0110           0
      5354 MEMB     43       DOPC     H17X     HAL2     0.900000E-01   1.00800           0
      5355 MEMB     43       DOPC     H17Y     HAL2     0.900000E-01   1.00800           0
      5356 MEMB     43       DOPC     C318     CTL3    -0.270000       12.0110           0
      5357 MEMB     43       DOPC     H18X     HAL3     0.900000E-01   1.00800           0
      5358 MEMB     43       DOPC     H18Y     HAL3     0.900000E-01   1.00800           0
      5359 MEMB     43       DOPC     H18Z     HAL3     0.900000E-01   1.00800           0
      5360 MEMB     44       DOPE     N        NH3L    -0.300000       14.0070           0
      5361 MEMB     44       DOPE     HN1      HCL      0.330000       1.00800           0
      5362 MEMB     44       DOPE     HN2      HCL      0.330000       1.00800           0
      5363 MEMB     44       DOPE     HN3      HCL      0.330000       1.00800           0
      5364 MEMB     44       DOPE     C12      CTL2     0.130000       12.0110           0
      5365 MEMB     44       DOPE     H12A     HAL2     0.900000E-01   1.00800           0
      5366 MEMB     44       DOPE     H12B     HAL2     0.900000E-01   1.00800           0
      5367 MEMB     44       DOPE     C11      CTL2    -0.800000E-01   12.0110           0
      5368 MEMB     44       DOPE     H11A     HAL2     0.900000E-01   1.00800           0
      5369 MEMB     44       DOPE     H11B     HAL2     0.900000E-01   1.00800           0
      5370 MEMB     44       DOPE     P        PL        1.50000       30.9740           0
      5371 MEMB     44       DOPE     O13      O2L     -0.780000       15.9994           0
      5372 MEMB     44       DOPE     O14      O2L     -0.780000       15.9994           0
      5373 MEMB     44       DOPE     O11      OSLP    -0.570000       15.9994           0
      5374 MEMB     44       DOPE     O12      OSLP    -0.570000       15.9994           0
      5375 MEMB     44       DOPE     C1       CTL2    -0.800000E-01   12.0110           0
      5376 MEMB     44       DOPE     HA       HAL2     0.900000E-01   1.00800           0
      5377 MEMB     44       DOPE     HB       HAL2     0.900000E-01   1.00800           0
      5378 MEMB     44       DOPE     C2       CTL1     0.170000       12.0110           0
      5379 MEMB     44       DOPE     HS       HAL1     0.900000E-01   1.00800           0
      5380 MEMB     44       DOPE     O21      OSL     -0.490000       15.9994           0
      5381 MEMB     44       DOPE     C21      CL       0.900000       12.0110           0
      5382 MEMB     44       DOPE     O22      OBL     -0.630000       15.9994           0
      5383 MEMB     44       DOPE     C22      CTL2    -0.220000       12.0110           0
      5384 MEMB     44       DOPE     H2R      HAL2     0.900000E-01   1.00800           0
      5385 MEMB     44       DOPE     H2S      HAL2     0.900000E-01   1.00800           0
      5386 MEMB     44       DOPE     C3       CTL2     0.800000E-01   12.0110           0
      5387 MEMB     44       DOPE     HX       HAL2     0.900000E-01   1.00800           0
      5388 MEMB     44       DOPE     HY       HAL2     0.900000E-01   1.00800           0
      5389 MEMB     44       DOPE     O31      OSL     -0.490000       15.9994           0
      5390 MEMB     44       DOPE     C31      CL       0.900000       12.0110           0
      5391 MEMB     44       DOPE     O32      OBL     -0.630000       15.9994           0
      5392 MEMB     44       DOPE     C32      CTL2    -0.220000       12.0110           0
      5393 MEMB     44       DOPE     H2X      HAL2     0.900000E-01   1.00800           0
      5394 MEMB     44       DOPE     H2Y      HAL2     0.900000E-01   1.00800           0
      5395 MEMB     44       DOPE     C23      CTL2    -0.180000       12.0110           0
      5396 MEMB     44       DOPE     H3R      HAL2     0.900000E-01   1.00800           0
      5397 MEMB     44       DOPE     H3S      HAL2     0.900000E-01   1.00800           0
      5398 MEMB     44       DOPE     C24      CTL2    -0.180000       12.0110           0
      5399 MEMB     44       DOPE     H4R      HAL2     0.900000E-01   1.00800           0
      5400 MEMB     44       DOPE     H4S      HAL2     0.900000E-01   1.00800           0
      5401 MEMB     44       DOPE     C25      CTL2    -0.180000       12.0110           0
      5402 MEMB     44       DOPE     H5R      HAL2     0.900000E-01   1.00800           0
      5403 MEMB     44       DOPE     H5S      HAL2     0.900000E-01   1.00800           0
      5404 MEMB     44       DOPE     C26      CTL2    -0.180000       12.0110           0
      5405 MEMB     44       DOPE     H6R      HAL2     0.900000E-01   1.00800           0
      5406 MEMB     44       DOPE     H6S      HAL2     0.900000E-01   1.00800           0
      5407 MEMB     44       DOPE     C27      CTL2    -0.180000       12.0110           0
      5408 MEMB     44       DOPE     H7R      HAL2     0.900000E-01   1.00800           0
      5409 MEMB     44       DOPE     H7S      HAL2     0.900000E-01   1.00800           0
      5410 MEMB     44       DOPE     C28      CTL2    -0.180000       12.0110           0
      5411 MEMB     44       DOPE     H8R      HAL2     0.900000E-01   1.00800           0
      5412 MEMB     44       DOPE     H8S      HAL2     0.900000E-01   1.00800           0
      5413 MEMB     44       DOPE     C29      CEL1    -0.150000       12.0110           0
      5414 MEMB     44       DOPE     H9R      HEL1     0.150000       1.00800           0
      5415 MEMB     44       DOPE     C210     CEL1    -0.150000       12.0110           0
      5416 MEMB     44       DOPE     H10R     HEL1     0.150000       1.00800           0
      5417 MEMB     44       DOPE     C211     CTL2    -0.180000       12.0110           0
      5418 MEMB     44       DOPE     H11R     HAL2     0.900000E-01   1.00800           0
      5419 MEMB     44       DOPE     H11S     HAL2     0.900000E-01   1.00800           0
      5420 MEMB     44       DOPE     C212     CTL2    -0.180000       12.0110           0
      5421 MEMB     44       DOPE     H12R     HAL2     0.900000E-01   1.00800           0
      5422 MEMB     44       DOPE     H12S     HAL2     0.900000E-01   1.00800           0
      5423 MEMB     44       DOPE     C213     CTL2    -0.180000       12.0110           0
      5424 MEMB     44       DOPE     H13R     HAL2     0.900000E-01   1.00800           0
      5425 MEMB     44       DOPE     H13S     HAL2     0.900000E-01   1.00800           0
      5426 MEMB     44       DOPE     C214     CTL2    -0.180000       12.0110           0
      5427 MEMB     44       DOPE     H14R     HAL2     0.900000E-01   1.00800           0
      5428 MEMB     44       DOPE     H14S     HAL2     0.900000E-01   1.00800           0
      5429 MEMB     44       DOPE     C215     CTL2    -0.180000       12.0110           0
      5430 MEMB     44       DOPE     H15R     HAL2     0.900000E-01   1.00800           0
      5431 MEMB     44       DOPE     H15S     HAL2     0.900000E-01   1.00800           0
      5432 MEMB     44       DOPE     C216     CTL2    -0.180000       12.0110           0
      5433 MEMB     44       DOPE     H16R     HAL2     0.900000E-01   1.00800           0
      5434 MEMB     44       DOPE     H16S     HAL2     0.900000E-01   1.00800           0
      5435 MEMB     44       DOPE     C217     CTL2    -0.180000       12.0110           0
      5436 MEMB     44       DOPE     H17R     HAL2     0.900000E-01   1.00800           0
      5437 MEMB     44       DOPE     H17S     HAL2     0.900000E-01   1.00800           0
      5438 MEMB     44       DOPE     C218     CTL3    -0.270000       12.0110           0
      5439 MEMB     44       DOPE     H18R     HAL3     0.900000E-01   1.00800           0
      5440 MEMB     44       DOPE     H18S     HAL3     0.900000E-01   1.00800           0
      5441 MEMB     44       DOPE     H18T     HAL3     0.900000E-01   1.00800           0
      5442 MEMB     44       DOPE     C33      CTL2    -0.180000       12.0110           0
      5443 MEMB     44       DOPE     H3X      HAL2     0.900000E-01   1.00800           0
      5444 MEMB     44       DOPE     H3Y      HAL2     0.900000E-01   1.00800           0
      5445 MEMB     44       DOPE     C34      CTL2    -0.180000       12.0110           0
      5446 MEMB     44       DOPE     H4X      HAL2     0.900000E-01   1.00800           0
      5447 MEMB     44       DOPE     H4Y      HAL2     0.900000E-01   1.00800           0
      5448 MEMB     44       DOPE     C35      CTL2    -0.180000       12.0110           0
      5449 MEMB     44       DOPE     H5X      HAL2     0.900000E-01   1.00800           0
      5450 MEMB     44       DOPE     H5Y      HAL2     0.900000E-01   1.00800           0
      5451 MEMB     44       DOPE     C36      CTL2    -0.180000       12.0110           0
      5452 MEMB     44       DOPE     H6X      HAL2     0.900000E-01   1.00800           0
      5453 MEMB     44       DOPE     H6Y      HAL2     0.900000E-01   1.00800           0
      5454 MEMB     44       DOPE     C37      CTL2    -0.180000       12.0110           0
      5455 MEMB     44       DOPE     H7X      HAL2     0.900000E-01   1.00800           0
      5456 MEMB     44       DOPE     H7Y      HAL2     0.900000E-01   1.00800           0
      5457 MEMB     44       DOPE     C38      CTL2    -0.180000       12.0110           0
      5458 MEMB     44       DOPE     H8X      HAL2     0.900000E-01   1.00800           0
      5459 MEMB     44       DOPE     H8Y      HAL2     0.900000E-01   1.00800           0
      5460 MEMB     44       DOPE     C39      CEL1    -0.150000       12.0110           0
      5461 MEMB     44       DOPE     H9X      HEL1     0.150000       1.00800           0
      5462 MEMB     44       DOPE     C310     CEL1    -0.150000       12.0110           0
      5463 MEMB     44       DOPE     H10X     HEL1     0.150000       1.00800           0
      5464 MEMB     44       DOPE     C311     CTL2    -0.180000       12.0110           0
      5465 MEMB     44       DOPE     H11X     HAL2     0.900000E-01   1.00800           0
      5466 MEMB     44       DOPE     H11Y     HAL2     0.900000E-01   1.00800           0
      5467 MEMB     44       DOPE     C312     CTL2    -0.180000       12.0110           0
      5468 MEMB     44       DOPE     H12X     HAL2     0.900000E-01   1.00800           0
      5469 MEMB     44       DOPE     H12Y     HAL2     0.900000E-01   1.00800           0
      5470 MEMB     44       DOPE     C313     CTL2    -0.180000       12.0110           0
      5471 MEMB     44       DOPE     H13X     HAL2     0.900000E-01   1.00800           0
      5472 MEMB     44       DOPE     H13Y     HAL2     0.900000E-01   1.00800           0
      5473 MEMB     44       DOPE     C314     CTL2    -0.180000       12.0110           0
      5474 MEMB     44       DOPE     H14X     HAL2     0.900000E-01   1.00800           0
      5475 MEMB     44       DOPE     H14Y     HAL2     0.900000E-01   1.00800           0
      5476 MEMB     44       DOPE     C315     CTL2    -0.180000       12.0110           0
      5477 MEMB     44       DOPE     H15X     HAL2     0.900000E-01   1.00800           0
      5478 MEMB     44       DOPE     H15Y     HAL2     0.900000E-01   1.00800           0
      5479 MEMB     44       DOPE     C316     CTL2    -0.180000       12.0110           0
      5480 MEMB     44       DOPE     H16X     HAL2     0.900000E-01   1.00800           0
      5481 MEMB     44       DOPE     H16Y     HAL2     0.900000E-01   1.00800           0
      5482 MEMB     44       DOPE     C317     CTL2    -0.180000       12.0110           0
      5483 MEMB     44       DOPE     H17X     HAL2     0.900000E-01   1.00800           0
      5484 MEMB     44       DOPE     H17Y     HAL2     0.900000E-01   1.00800           0
      5485 MEMB     44       DOPE     C318     CTL3    -0.270000       12.0110           0
      5486 MEMB     44       DOPE     H18X     HAL3     0.900000E-01   1.00800           0
      5487 MEMB     44       DOPE     H18Y     HAL3     0.900000E-01   1.00800           0
      5488 MEMB     44       DOPE     H18Z     HAL3     0.900000E-01   1.00800           0
      5489 MEMB     45       DOPC     N        NTL     -0.600000       14.0070           0
      5490 MEMB     45       DOPC     C12      CTL2    -0.100000       12.0110           0
      5491 MEMB     45       DOPC     H12A     HL       0.250000       1.00800           0
      5492 MEMB     45       DOPC     H12B     HL       0.250000       1.00800           0
      5493 MEMB     45       DOPC     C13      CTL5    -0.350000       12.0110           0
      5494 MEMB     45       DOPC     H13A     HL       0.250000       1.00800           0
      5495 MEMB     45       DOPC     H13B     HL       0.250000       1.00800           0
      5496 MEMB     45       DOPC     H13C     HL       0.250000       1.00800           0
      5497 MEMB     45       DOPC     C14      CTL5    -0.350000       12.0110           0
      5498 MEMB     45       DOPC     H14A     HL       0.250000       1.00800           0
      5499 MEMB     45       DOPC     H14B     HL       0.250000       1.00800           0
      5500 MEMB     45       DOPC     H14C     HL       0.250000       1.00800           0
      5501 MEMB     45       DOPC     C15      CTL5    -0.350000       12.0110           0
      5502 MEMB     45       DOPC     H15A     HL       0.250000       1.00800           0
      5503 MEMB     45       DOPC     H15B     HL       0.250000       1.00800           0
      5504 MEMB     45       DOPC     H15C     HL       0.250000       1.00800           0
      5505 MEMB     45       DOPC     C11      CTL2    -0.800000E-01   12.0110           0
      5506 MEMB     45       DOPC     H11A     HAL2     0.900000E-01   1.00800           0
      5507 MEMB     45       DOPC     H11B     HAL2     0.900000E-01   1.00800           0
      5508 MEMB     45       DOPC     P        PL        1.50000       30.9740           0
      5509 MEMB     45       DOPC     O13      O2L     -0.780000       15.9994           0
      5510 MEMB     45       DOPC     O14      O2L     -0.780000       15.9994           0
      5511 MEMB     45       DOPC     O12      OSLP    -0.570000       15.9994           0
      5512 MEMB     45       DOPC     O11      OSLP    -0.570000       15.9994           0
      5513 MEMB     45       DOPC     C1       CTL2    -0.800000E-01   12.0110           0
      5514 MEMB     45       DOPC     HA       HAL2     0.900000E-01   1.00800           0
      5515 MEMB     45       DOPC     HB       HAL2     0.900000E-01   1.00800           0
      5516 MEMB     45       DOPC     C2       CTL1     0.170000       12.0110           0
      5517 MEMB     45       DOPC     HS       HAL1     0.900000E-01   1.00800           0
      5518 MEMB     45       DOPC     O21      OSL     -0.490000       15.9994           0
      5519 MEMB     45       DOPC     C21      CL       0.900000       12.0110           0
      5520 MEMB     45       DOPC     O22      OBL     -0.630000       15.9994           0
      5521 MEMB     45       DOPC     C22      CTL2    -0.220000       12.0110           0
      5522 MEMB     45       DOPC     H2R      HAL2     0.900000E-01   1.00800           0
      5523 MEMB     45       DOPC     H2S      HAL2     0.900000E-01   1.00800           0
      5524 MEMB     45       DOPC     C3       CTL2     0.800000E-01   12.0110           0
      5525 MEMB     45       DOPC     HX       HAL2     0.900000E-01   1.00800           0
      5526 MEMB     45       DOPC     HY       HAL2     0.900000E-01   1.00800           0
      5527 MEMB     45       DOPC     O31      OSL     -0.490000       15.9994           0
      5528 MEMB     45       DOPC     C31      CL       0.900000       12.0110           0
      5529 MEMB     45       DOPC     O32      OBL     -0.630000       15.9994           0
      5530 MEMB     45       DOPC     C32      CTL2    -0.220000       12.0110           0
      5531 MEMB     45       DOPC     H2X      HAL2     0.900000E-01   1.00800           0
      5532 MEMB     45       DOPC     H2Y      HAL2     0.900000E-01   1.00800           0
      5533 MEMB     45       DOPC     C23      CTL2    -0.180000       12.0110           0
      5534 MEMB     45       DOPC     H3R      HAL2     0.900000E-01   1.00800           0
      5535 MEMB     45       DOPC     H3S      HAL2     0.900000E-01   1.00800           0
      5536 MEMB     45       DOPC     C24      CTL2    -0.180000       12.0110           0
      5537 MEMB     45       DOPC     H4R      HAL2     0.900000E-01   1.00800           0
      5538 MEMB     45       DOPC     H4S      HAL2     0.900000E-01   1.00800           0
      5539 MEMB     45       DOPC     C25      CTL2    -0.180000       12.0110           0
      5540 MEMB     45       DOPC     H5R      HAL2     0.900000E-01   1.00800           0
      5541 MEMB     45       DOPC     H5S      HAL2     0.900000E-01   1.00800           0
      5542 MEMB     45       DOPC     C26      CTL2    -0.180000       12.0110           0
      5543 MEMB     45       DOPC     H6R      HAL2     0.900000E-01   1.00800           0
      5544 MEMB     45       DOPC     H6S      HAL2     0.900000E-01   1.00800           0
      5545 MEMB     45       DOPC     C27      CTL2    -0.180000       12.0110           0
      5546 MEMB     45       DOPC     H7R      HAL2     0.900000E-01   1.00800           0
      5547 MEMB     45       DOPC     H7S      HAL2     0.900000E-01   1.00800           0
      5548 MEMB     45       DOPC     C28      CTL2    -0.180000       12.0110           0
      5549 MEMB     45       DOPC     H8R      HAL2     0.900000E-01   1.00800           0
      5550 MEMB     45       DOPC     H8S      HAL2     0.900000E-01   1.00800           0
      5551 MEMB     45       DOPC     C29      CEL1    -0.150000       12.0110           0
      5552 MEMB     45       DOPC     H9R      HEL1     0.150000       1.00800           0
      5553 MEMB     45       DOPC     C210     CEL1    -0.150000       12.0110           0
      5554 MEMB     45       DOPC     H10R     HEL1     0.150000       1.00800           0
      5555 MEMB     45       DOPC     C211     CTL2    -0.180000       12.0110           0
      5556 MEMB     45       DOPC     H11R     HAL2     0.900000E-01   1.00800           0
      5557 MEMB     45       DOPC     H11S     HAL2     0.900000E-01   1.00800           0
      5558 MEMB     45       DOPC     C212     CTL2    -0.180000       12.0110           0
      5559 MEMB     45       DOPC     H12R     HAL2     0.900000E-01   1.00800           0
      5560 MEMB     45       DOPC     H12S     HAL2     0.900000E-01   1.00800           0
      5561 MEMB     45       DOPC     C213     CTL2    -0.180000       12.0110           0
      5562 MEMB     45       DOPC     H13R     HAL2     0.900000E-01   1.00800           0
      5563 MEMB     45       DOPC     H13S     HAL2     0.900000E-01   1.00800           0
      5564 MEMB     45       DOPC     C214     CTL2    -0.180000       12.0110           0
      5565 MEMB     45       DOPC     H14R     HAL2     0.900000E-01   1.00800           0
      5566 MEMB     45       DOPC     H14S     HAL2     0.900000E-01   1.00800           0
      5567 MEMB     45       DOPC     C215     CTL2    -0.180000       12.0110           0
      5568 MEMB     45       DOPC     H15R     HAL2     0.900000E-01   1.00800           0
      5569 MEMB     45       DOPC     H15S     HAL2     0.900000E-01   1.00800           0
      5570 MEMB     45       DOPC     C216     CTL2    -0.180000       12.0110           0
      5571 MEMB     45       DOPC     H16R     HAL2     0.900000E-01   1.00800           0
      5572 MEMB     45       DOPC     H16S     HAL2     0.900000E-01   1.00800           0
      5573 MEMB     45       DOPC     C217     CTL2    -0.180000       12.0110           0
      5574 MEMB     45       DOPC     H17R     HAL2     0.900000E-01   1.00800           0
      5575 MEMB     45       DOPC     H17S     HAL2     0.900000E-01   1.00800           0
      5576 MEMB     45       DOPC     C218     CTL3    -0.270000       12.0110           0
      5577 MEMB     45       DOPC     H18R     HAL3     0.900000E-01   1.00800           0
      5578 MEMB     45       DOPC     H18S     HAL3     0.900000E-01   1.00800           0
      5579 MEMB     45       DOPC     H18T     HAL3     0.900000E-01   1.00800           0
      5580 MEMB     45       DOPC     C33      CTL2    -0.180000       12.0110           0
      5581 MEMB     45       DOPC     H3X      HAL2     0.900000E-01   1.00800           0
      5582 MEMB     45       DOPC     H3Y      HAL2     0.900000E-01   1.00800           0
      5583 MEMB     45       DOPC     C34      CTL2    -0.180000       12.0110           0
      5584 MEMB     45       DOPC     H4X      HAL2     0.900000E-01   1.00800           0
      5585 MEMB     45       DOPC     H4Y      HAL2     0.900000E-01   1.00800           0
      5586 MEMB     45       DOPC     C35      CTL2    -0.180000       12.0110           0
      5587 MEMB     45       DOPC     H5X      HAL2     0.900000E-01   1.00800           0
      5588 MEMB     45       DOPC     H5Y      HAL2     0.900000E-01   1.00800           0
      5589 MEMB     45       DOPC     C36      CTL2    -0.180000       12.0110           0
      5590 MEMB     45       DOPC     H6X      HAL2     0.900000E-01   1.00800           0
      5591 MEMB     45       DOPC     H6Y      HAL2     0.900000E-01   1.00800           0
      5592 MEMB     45       DOPC     C37      CTL2    -0.180000       12.0110           0
      5593 MEMB     45       DOPC     H7X      HAL2     0.900000E-01   1.00800           0
      5594 MEMB     45       DOPC     H7Y      HAL2     0.900000E-01   1.00800           0
      5595 MEMB     45       DOPC     C38      CTL2    -0.180000       12.0110           0
      5596 MEMB     45       DOPC     H8X      HAL2     0.900000E-01   1.00800           0
      5597 MEMB     45       DOPC     H8Y      HAL2     0.900000E-01   1.00800           0
      5598 MEMB     45       DOPC     C39      CEL1    -0.150000       12.0110           0
      5599 MEMB     45       DOPC     H9X      HEL1     0.150000       1.00800           0
      5600 MEMB     45       DOPC     C310     CEL1    -0.150000       12.0110           0
      5601 MEMB     45       DOPC     H10X     HEL1     0.150000       1.00800           0
      5602 MEMB     45       DOPC     C311     CTL2    -0.180000       12.0110           0
      5603 MEMB     45       DOPC     H11X     HAL2     0.900000E-01   1.00800           0
      5604 MEMB     45       DOPC     H11Y     HAL2     0.900000E-01   1.00800           0
      5605 MEMB     45       DOPC     C312     CTL2    -0.180000       12.0110           0
      5606 MEMB     45       DOPC     H12X     HAL2     0.900000E-01   1.00800           0
      5607 MEMB     45       DOPC     H12Y     HAL2     0.900000E-01   1.00800           0
      5608 MEMB     45       DOPC     C313     CTL2    -0.180000       12.0110           0
      5609 MEMB     45       DOPC     H13X     HAL2     0.900000E-01   1.00800           0
      5610 MEMB     45       DOPC     H13Y     HAL2     0.900000E-01   1.00800           0
      5611 MEMB     45       DOPC     C314     CTL2    -0.180000       12.0110           0
      5612 MEMB     45       DOPC     H14X     HAL2     0.900000E-01   1.00800           0
      5613 MEMB     45       DOPC     H14Y     HAL2     0.900000E-01   1.00800           0
      5614 MEMB     45       DOPC     C315     CTL2    -0.180000       12.0110           0
      5615 MEMB     45       DOPC     H15X     HAL2     0.900000E-01   1.00800           0
      5616 MEMB     45       DOPC     H15Y     HAL2     0.900000E-01   1.00800           0
      5617 MEMB     45       DOPC     C316     CTL2    -0.180000       12.0110           0
      5618 MEMB     45       DOPC     H16X     HAL2     0.900000E-01   1.00800           0
      5619 MEMB     45       DOPC     H16Y     HAL2     0.900000E-01   1.00800           0
      5620 MEMB     45       DOPC     C317     CTL2    -0.180000       12.0110           0
      5621 MEMB     45       DOPC     H17X     HAL2     0.900000E-01   1.00800           0
      5622 MEMB     45       DOPC     H17Y     HAL2     0.900000E-01   1.00800           0
      5623 MEMB     45       DOPC     C318     CTL3    -0.270000       12.0110           0
      5624 MEMB     45       DOPC     H18X     HAL3     0.900000E-01   1.00800           0
      5625 MEMB     45       DOPC     H18Y     HAL3     0.900000E-01   1.00800           0
      5626 MEMB     45       DOPC     H18Z     HAL3     0.900000E-01   1.00800           0
      5627 MEMB     46       DOPE     N        NH3L    -0.300000       14.0070           0
      5628 MEMB     46       DOPE     HN1      HCL      0.330000       1.00800           0
      5629 MEMB     46       DOPE     HN2      HCL      0.330000       1.00800           0
      5630 MEMB     46       DOPE     HN3      HCL      0.330000       1.00800           0
      5631 MEMB     46       DOPE     C12      CTL2     0.130000       12.0110           0
      5632 MEMB     46       DOPE     H12A     HAL2     0.900000E-01   1.00800           0
      5633 MEMB     46       DOPE     H12B     HAL2     0.900000E-01   1.00800           0
      5634 MEMB     46       DOPE     C11      CTL2    -0.800000E-01   12.0110           0
      5635 MEMB     46       DOPE     H11A     HAL2     0.900000E-01   1.00800           0
      5636 MEMB     46       DOPE     H11B     HAL2     0.900000E-01   1.00800           0
      5637 MEMB     46       DOPE     P        PL        1.50000       30.9740           0
      5638 MEMB     46       DOPE     O13      O2L     -0.780000       15.9994           0
      5639 MEMB     46       DOPE     O14      O2L     -0.780000       15.9994           0
      5640 MEMB     46       DOPE     O11      OSLP    -0.570000       15.9994           0
      5641 MEMB     46       DOPE     O12      OSLP    -0.570000       15.9994           0
      5642 MEMB     46       DOPE     C1       CTL2    -0.800000E-01   12.0110           0
      5643 MEMB     46       DOPE     HA       HAL2     0.900000E-01   1.00800           0
      5644 MEMB     46       DOPE     HB       HAL2     0.900000E-01   1.00800           0
      5645 MEMB     46       DOPE     C2       CTL1     0.170000       12.0110           0
      5646 MEMB     46       DOPE     HS       HAL1     0.900000E-01   1.00800           0
      5647 MEMB     46       DOPE     O21      OSL     -0.490000       15.9994           0
      5648 MEMB     46       DOPE     C21      CL       0.900000       12.0110           0
      5649 MEMB     46       DOPE     O22      OBL     -0.630000       15.9994           0
      5650 MEMB     46       DOPE     C22      CTL2    -0.220000       12.0110           0
      5651 MEMB     46       DOPE     H2R      HAL2     0.900000E-01   1.00800           0
      5652 MEMB     46       DOPE     H2S      HAL2     0.900000E-01   1.00800           0
      5653 MEMB     46       DOPE     C3       CTL2     0.800000E-01   12.0110           0
      5654 MEMB     46       DOPE     HX       HAL2     0.900000E-01   1.00800           0
      5655 MEMB     46       DOPE     HY       HAL2     0.900000E-01   1.00800           0
      5656 MEMB     46       DOPE     O31      OSL     -0.490000       15.9994           0
      5657 MEMB     46       DOPE     C31      CL       0.900000       12.0110           0
      5658 MEMB     46       DOPE     O32      OBL     -0.630000       15.9994           0
      5659 MEMB     46       DOPE     C32      CTL2    -0.220000       12.0110           0
      5660 MEMB     46       DOPE     H2X      HAL2     0.900000E-01   1.00800           0
      5661 MEMB     46       DOPE     H2Y      HAL2     0.900000E-01   1.00800           0
      5662 MEMB     46       DOPE     C23      CTL2    -0.180000       12.0110           0
      5663 MEMB     46       DOPE     H3R      HAL2     0.900000E-01   1.00800           0
      5664 MEMB     46       DOPE     H3S      HAL2     0.900000E-01   1.00800           0
      5665 MEMB     46       DOPE     C24      CTL2    -0.180000       12.0110           0
      5666 MEMB     46       DOPE     H4R      HAL2     0.900000E-01   1.00800           0
      5667 MEMB     46       DOPE     H4S      HAL2     0.900000E-01   1.00800           0
      5668 MEMB     46       DOPE     C25      CTL2    -0.180000       12.0110           0
      5669 MEMB     46       DOPE     H5R      HAL2     0.900000E-01   1.00800           0
      5670 MEMB     46       DOPE     H5S      HAL2     0.900000E-01   1.00800           0
      5671 MEMB     46       DOPE     C26      CTL2    -0.180000       12.0110           0
      5672 MEMB     46       DOPE     H6R      HAL2     0.900000E-01   1.00800           0
      5673 MEMB     46       DOPE     H6S      HAL2     0.900000E-01   1.00800           0
      5674 MEMB     46       DOPE     C27      CTL2    -0.180000       12.0110           0
      5675 MEMB     46       DOPE     H7R      HAL2     0.900000E-01   1.00800           0
      5676 MEMB     46       DOPE     H7S      HAL2     0.900000E-01   1.00800           0
      5677 MEMB     46       DOPE     C28      CTL2    -0.180000       12.0110           0
      5678 MEMB     46       DOPE     H8R      HAL2     0.900000E-01   1.00800           0
      5679 MEMB     46       DOPE     H8S      HAL2     0.900000E-01   1.00800           0
      5680 MEMB     46       DOPE     C29      CEL1    -0.150000       12.0110           0
      5681 MEMB     46       DOPE     H9R      HEL1     0.150000       1.00800           0
      5682 MEMB     46       DOPE     C210     CEL1    -0.150000       12.0110           0
      5683 MEMB     46       DOPE     H10R     HEL1     0.150000       1.00800           0
      5684 MEMB     46       DOPE     C211     CTL2    -0.180000       12.0110           0
      5685 MEMB     46       DOPE     H11R     HAL2     0.900000E-01   1.00800           0
      5686 MEMB     46       DOPE     H11S     HAL2     0.900000E-01   1.00800           0
      5687 MEMB     46       DOPE     C212     CTL2    -0.180000       12.0110           0
      5688 MEMB     46       DOPE     H12R     HAL2     0.900000E-01   1.00800           0
      5689 MEMB     46       DOPE     H12S     HAL2     0.900000E-01   1.00800           0
      5690 MEMB     46       DOPE     C213     CTL2    -0.180000       12.0110           0
      5691 MEMB     46       DOPE     H13R     HAL2     0.900000E-01   1.00800           0
      5692 MEMB     46       DOPE     H13S     HAL2     0.900000E-01   1.00800           0
      5693 MEMB     46       DOPE     C214     CTL2    -0.180000       12.0110           0
      5694 MEMB     46       DOPE     H14R     HAL2     0.900000E-01   1.00800           0
      5695 MEMB     46       DOPE     H14S     HAL2     0.900000E-01   1.00800           0
      5696 MEMB     46       DOPE     C215     CTL2    -0.180000       12.0110           0
      5697 MEMB     46       DOPE     H15R     HAL2     0.900000E-01   1.00800           0
      5698 MEMB     46       DOPE     H15S     HAL2     0.900000E-01   1.00800           0
      5699 MEMB     46       DOPE     C216     CTL2    -0.180000       12.0110           0
      5700 MEMB     46       DOPE     H16R     HAL2     0.900000E-01   1.00800           0
      5701 MEMB     46       DOPE     H16S     HAL2     0.900000E-01   1.00800           0
      5702 MEMB     46       DOPE     C217     CTL2    -0.180000       12.0110           0
      5703 MEMB     46       DOPE     H17R     HAL2     0.900000E-01   1.00800           0
      5704 MEMB     46       DOPE     H17S     HAL2     0.900000E-01   1.00800           0
      5705 MEMB     46       DOPE     C218     CTL3    -0.270000       12.0110           0
      5706 MEMB     46       DOPE     H18R     HAL3     0.900000E-01   1.00800           0
      5707 MEMB     46       DOPE     H18S     HAL3     0.900000E-01   1.00800           0
      5708 MEMB     46       DOPE     H18T     HAL3     0.900000E-01   1.00800           0
      5709 MEMB     46       DOPE     C33      CTL2    -0.180000       12.0110           0
      5710 MEMB     46       DOPE     H3X      HAL2     0.900000E-01   1.00800           0
      5711 MEMB     46       DOPE     H3Y      HAL2     0.900000E-01   1.00800           0
      5712 MEMB     46       DOPE     C34      CTL2    -0.180000       12.0110           0
      5713 MEMB     46       DOPE     H4X      HAL2     0.900000E-01   1.00800           0
      5714 MEMB     46       DOPE     H4Y      HAL2     0.900000E-01   1.00800           0
      5715 MEMB     46       DOPE     C35      CTL2    -0.180000       12.0110           0
      5716 MEMB     46       DOPE     H5X      HAL2     0.900000E-01   1.00800           0
      5717 MEMB     46       DOPE     H5Y      HAL2     0.900000E-01   1.00800           0
      5718 MEMB     46       DOPE     C36      CTL2    -0.180000       12.0110           0
      5719 MEMB     46       DOPE     H6X      HAL2     0.900000E-01   1.00800           0
      5720 MEMB     46       DOPE     H6Y      HAL2     0.900000E-01   1.00800           0
      5721 MEMB     46       DOPE     C37      CTL2    -0.180000       12.0110           0
      5722 MEMB     46       DOPE     H7X      HAL2     0.900000E-01   1.00800           0
      5723 MEMB     46       DOPE     H7Y      HAL2     0.900000E-01   1.00800           0
      5724 MEMB     46       DOPE     C38      CTL2    -0.180000       12.0110           0
      5725 MEMB     46       DOPE     H8X      HAL2     0.900000E-01   1.00800           0
      5726 MEMB     46       DOPE     H8Y      HAL2     0.900000E-01   1.00800           0
      5727 MEMB     46       DOPE     C39      CEL1    -0.150000       12.0110           0
      5728 MEMB     46       DOPE     H9X      HEL1     0.150000       1.00800           0
      5729 MEMB     46       DOPE     C310     CEL1    -0.150000       12.0110           0
      5730 MEMB     46       DOPE     H10X     HEL1     0.150000       1.00800           0
      5731 MEMB     46       DOPE     C311     CTL2    -0.180000       12.0110           0
      5732 MEMB     46       DOPE     H11X     HAL2     0.900000E-01   1.00800           0
      5733 MEMB     46       DOPE     H11Y     HAL2     0.900000E-01   1.00800           0
      5734 MEMB     46       DOPE     C312     CTL2    -0.180000       12.0110           0
      5735 MEMB     46       DOPE     H12X     HAL2     0.900000E-01   1.00800           0
      5736 MEMB     46       DOPE     H12Y     HAL2     0.900000E-01   1.00800           0
      5737 MEMB     46       DOPE     C313     CTL2    -0.180000       12.0110           0
      5738 MEMB     46       DOPE     H13X     HAL2     0.900000E-01   1.00800           0
      5739 MEMB     46       DOPE     H13Y     HAL2     0.900000E-01   1.00800           0
      5740 MEMB     46       DOPE     C314     CTL2    -0.180000       12.0110           0
      5741 MEMB     46       DOPE     H14X     HAL2     0.900000E-01   1.00800           0
      5742 MEMB     46       DOPE     H14Y     HAL2     0.900000E-01   1.00800           0
      5743 MEMB     46       DOPE     C315     CTL2    -0.180000       12.0110           0
      5744 MEMB     46       DOPE     H15X     HAL2     0.900000E-01   1.00800           0
      5745 MEMB     46       DOPE     H15Y     HAL2     0.900000E-01   1.00800           0
      5746 MEMB     46       DOPE     C316     CTL2    -0.180000       12.0110           0
      5747 MEMB     46       DOPE     H16X     HAL2     0.900000E-01   1.00800           0
      5748 MEMB     46       DOPE     H16Y     HAL2     0.900000E-01   1.00800           0
      5749 MEMB     46       DOPE     C317     CTL2    -0.180000       12.0110           0
      5750 MEMB     46       DOPE     H17X     HAL2     0.900000E-01   1.00800           0
      5751 MEMB     46       DOPE     H17Y     HAL2     0.900000E-01   1.00800           0
      5752 MEMB     46       DOPE     C318     CTL3    -0.270000       12.0110           0
      5753 MEMB     46       DOPE     H18X     HAL3     0.900000E-01   1.00800           0
      5754 MEMB     46       DOPE     H18Y     HAL3     0.900000E-01   1.00800           0
      5755 MEMB     46       DOPE     H18Z     HAL3     0.900000E-01   1.00800           0
      5756 MEMB     47       DOPC     N        NTL     -0.600000       14.0070           0
      5757 MEMB     47       DOPC     C12      CTL2    -0.100000       12.0110           0
      5758 MEMB     47       DOPC     H12A     HL       0.250000       1.00800           0
      5759 MEMB     47       DOPC     H12B     HL       0.250000       1.00800           0
      5760 MEMB     47       DOPC     C13      CTL5    -0.350000       12.0110           0
      5761 MEMB     47       DOPC     H13A     HL       0.250000       1.00800           0
      5762 MEMB     47       DOPC     H13B     HL       0.250000       1.00800           0
      5763 MEMB     47       DOPC     H13C     HL       0.250000       1.00800           0
      5764 MEMB     47       DOPC     C14      CTL5    -0.350000       12.0110           0
      5765 MEMB     47       DOPC     H14A     HL       0.250000       1.00800           0
      5766 MEMB     47       DOPC     H14B     HL       0.250000       1.00800           0
      5767 MEMB     47       DOPC     H14C     HL       0.250000       1.00800           0
      5768 MEMB     47       DOPC     C15      CTL5    -0.350000       12.0110           0
      5769 MEMB     47       DOPC     H15A     HL       0.250000       1.00800           0
      5770 MEMB     47       DOPC     H15B     HL       0.250000       1.00800           0
      5771 MEMB     47       DOPC     H15C     HL       0.250000       1.00800           0
      5772 MEMB     47       DOPC     C11      CTL2    -0.800000E-01   12.0110           0
      5773 MEMB     47       DOPC     H11A     HAL2     0.900000E-01   1.00800           0
      5774 MEMB     47       DOPC     H11B     HAL2     0.900000E-01   1.00800           0
      5775 MEMB     47       DOPC     P        PL        1.50000       30.9740           0
      5776 MEMB     47       DOPC     O13      O2L     -0.780000       15.9994           0
      5777 MEMB     47       DOPC     O14      O2L     -0.780000       15.9994           0
      5778 MEMB     47       DOPC     O12      OSLP    -0.570000       15.9994           0
      5779 MEMB     47       DOPC     O11      OSLP    -0.570000       15.9994           0
      5780 MEMB     47       DOPC     C1       CTL2    -0.800000E-01   12.0110           0
      5781 MEMB     47       DOPC     HA       HAL2     0.900000E-01   1.00800           0
      5782 MEMB     47       DOPC     HB       HAL2     0.900000E-01   1.00800           0
      5783 MEMB     47       DOPC     C2       CTL1     0.170000       12.0110           0
      5784 MEMB     47       DOPC     HS       HAL1     0.900000E-01   1.00800           0
      5785 MEMB     47       DOPC     O21      OSL     -0.490000       15.9994           0
      5786 MEMB     47       DOPC     C21      CL       0.900000       12.0110           0
      5787 MEMB     47       DOPC     O22      OBL     -0.630000       15.9994           0
      5788 MEMB     47       DOPC     C22      CTL2    -0.220000       12.0110           0
      5789 MEMB     47       DOPC     H2R      HAL2     0.900000E-01   1.00800           0
      5790 MEMB     47       DOPC     H2S      HAL2     0.900000E-01   1.00800           0
      5791 MEMB     47       DOPC     C3       CTL2     0.800000E-01   12.0110           0
      5792 MEMB     47       DOPC     HX       HAL2     0.900000E-01   1.00800           0
      5793 MEMB     47       DOPC     HY       HAL2     0.900000E-01   1.00800           0
      5794 MEMB     47       DOPC     O31      OSL     -0.490000       15.9994           0
      5795 MEMB     47       DOPC     C31      CL       0.900000       12.0110           0
      5796 MEMB     47       DOPC     O32      OBL     -0.630000       15.9994           0
      5797 MEMB     47       DOPC     C32      CTL2    -0.220000       12.0110           0
      5798 MEMB     47       DOPC     H2X      HAL2     0.900000E-01   1.00800           0
      5799 MEMB     47       DOPC     H2Y      HAL2     0.900000E-01   1.00800           0
      5800 MEMB     47       DOPC     C23      CTL2    -0.180000       12.0110           0
      5801 MEMB     47       DOPC     H3R      HAL2     0.900000E-01   1.00800           0
      5802 MEMB     47       DOPC     H3S      HAL2     0.900000E-01   1.00800           0
      5803 MEMB     47       DOPC     C24      CTL2    -0.180000       12.0110           0
      5804 MEMB     47       DOPC     H4R      HAL2     0.900000E-01   1.00800           0
      5805 MEMB     47       DOPC     H4S      HAL2     0.900000E-01   1.00800           0
      5806 MEMB     47       DOPC     C25      CTL2    -0.180000       12.0110           0
      5807 MEMB     47       DOPC     H5R      HAL2     0.900000E-01   1.00800           0
      5808 MEMB     47       DOPC     H5S      HAL2     0.900000E-01   1.00800           0
      5809 MEMB     47       DOPC     C26      CTL2    -0.180000       12.0110           0
      5810 MEMB     47       DOPC     H6R      HAL2     0.900000E-01   1.00800           0
      5811 MEMB     47       DOPC     H6S      HAL2     0.900000E-01   1.00800           0
      5812 MEMB     47       DOPC     C27      CTL2    -0.180000       12.0110           0
      5813 MEMB     47       DOPC     H7R      HAL2     0.900000E-01   1.00800           0
      5814 MEMB     47       DOPC     H7S      HAL2     0.900000E-01   1.00800           0
      5815 MEMB     47       DOPC     C28      CTL2    -0.180000       12.0110           0
      5816 MEMB     47       DOPC     H8R      HAL2     0.900000E-01   1.00800           0
      5817 MEMB     47       DOPC     H8S      HAL2     0.900000E-01   1.00800           0
      5818 MEMB     47       DOPC     C29      CEL1    -0.150000       12.0110           0
      5819 MEMB     47       DOPC     H9R      HEL1     0.150000       1.00800           0
      5820 MEMB     47       DOPC     C210     CEL1    -0.150000       12.0110           0
      5821 MEMB     47       DOPC     H10R     HEL1     0.150000       1.00800           0
      5822 MEMB     47       DOPC     C211     CTL2    -0.180000       12.0110           0
      5823 MEMB     47       DOPC     H11R     HAL2     0.900000E-01   1.00800           0
      5824 MEMB     47       DOPC     H11S     HAL2     0.900000E-01   1.00800           0
      5825 MEMB     47       DOPC     C212     CTL2    -0.180000       12.0110           0
      5826 MEMB     47       DOPC     H12R     HAL2     0.900000E-01   1.00800           0
      5827 MEMB     47       DOPC     H12S     HAL2     0.900000E-01   1.00800           0
      5828 MEMB     47       DOPC     C213     CTL2    -0.180000       12.0110           0
      5829 MEMB     47       DOPC     H13R     HAL2     0.900000E-01   1.00800           0
      5830 MEMB     47       DOPC     H13S     HAL2     0.900000E-01   1.00800           0
      5831 MEMB     47       DOPC     C214     CTL2    -0.180000       12.0110           0
      5832 MEMB     47       DOPC     H14R     HAL2     0.900000E-01   1.00800           0
      5833 MEMB     47       DOPC     H14S     HAL2     0.900000E-01   1.00800           0
      5834 MEMB     47       DOPC     C215     CTL2    -0.180000       12.0110           0
      5835 MEMB     47       DOPC     H15R     HAL2     0.900000E-01   1.00800           0
      5836 MEMB     47       DOPC     H15S     HAL2     0.900000E-01   1.00800           0
      5837 MEMB     47       DOPC     C216     CTL2    -0.180000       12.0110           0
      5838 MEMB     47       DOPC     H16R     HAL2     0.900000E-01   1.00800           0
      5839 MEMB     47       DOPC     H16S     HAL2     0.900000E-01   1.00800           0
      5840 MEMB     47       DOPC     C217     CTL2    -0.180000       12.0110           0
      5841 MEMB     47       DOPC     H17R     HAL2     0.900000E-01   1.00800           0
      5842 MEMB     47       DOPC     H17S     HAL2     0.900000E-01   1.00800           0
      5843 MEMB     47       DOPC     C218     CTL3    -0.270000       12.0110           0
      5844 MEMB     47       DOPC     H18R     HAL3     0.900000E-01   1.00800           0
      5845 MEMB     47       DOPC     H18S     HAL3     0.900000E-01   1.00800           0
      5846 MEMB     47       DOPC     H18T     HAL3     0.900000E-01   1.00800           0
      5847 MEMB     47       DOPC     C33      CTL2    -0.180000       12.0110           0
      5848 MEMB     47       DOPC     H3X      HAL2     0.900000E-01   1.00800           0
      5849 MEMB     47       DOPC     H3Y      HAL2     0.900000E-01   1.00800           0
      5850 MEMB     47       DOPC     C34      CTL2    -0.180000       12.0110           0
      5851 MEMB     47       DOPC     H4X      HAL2     0.900000E-01   1.00800           0
      5852 MEMB     47       DOPC     H4Y      HAL2     0.900000E-01   1.00800           0
      5853 MEMB     47       DOPC     C35      CTL2    -0.180000       12.0110           0
      5854 MEMB     47       DOPC     H5X      HAL2     0.900000E-01   1.00800           0
      5855 MEMB     47       DOPC     H5Y      HAL2     0.900000E-01   1.00800           0
      5856 MEMB     47       DOPC     C36      CTL2    -0.180000       12.0110           0
      5857 MEMB     47       DOPC     H6X      HAL2     0.900000E-01   1.00800           0
      5858 MEMB     47       DOPC     H6Y      HAL2     0.900000E-01   1.00800           0
      5859 MEMB     47       DOPC     C37      CTL2    -0.180000       12.0110           0
      5860 MEMB     47       DOPC     H7X      HAL2     0.900000E-01   1.00800           0
      5861 MEMB     47       DOPC     H7Y      HAL2     0.900000E-01   1.00800           0
      5862 MEMB     47       DOPC     C38      CTL2    -0.180000       12.0110           0
      5863 MEMB     47       DOPC     H8X      HAL2     0.900000E-01   1.00800           0
      5864 MEMB     47       DOPC     H8Y      HAL2     0.900000E-01   1.00800           0
      5865 MEMB     47       DOPC     C39      CEL1    -0.150000       12.0110           0
      5866 MEMB     47       DOPC     H9X      HEL1     0.150000       1.00800           0
      5867 MEMB     47       DOPC     C310     CEL1    -0.150000       12.0110           0
      5868 MEMB     47       DOPC     H10X     HEL1     0.150000       1.00800           0
      5869 MEMB     47       DOPC     C311     CTL2    -0.180000       12.0110           0
      5870 MEMB     47       DOPC     H11X     HAL2     0.900000E-01   1.00800           0
      5871 MEMB     47       DOPC     H11Y     HAL2     0.900000E-01   1.00800           0
      5872 MEMB     47       DOPC     C312     CTL2    -0.180000       12.0110           0
      5873 MEMB     47       DOPC     H12X     HAL2     0.900000E-01   1.00800           0
      5874 MEMB     47       DOPC     H12Y     HAL2     0.900000E-01   1.00800           0
      5875 MEMB     47       DOPC     C313     CTL2    -0.180000       12.0110           0
      5876 MEMB     47       DOPC     H13X     HAL2     0.900000E-01   1.00800           0
      5877 MEMB     47       DOPC     H13Y     HAL2     0.900000E-01   1.00800           0
      5878 MEMB     47       DOPC     C314     CTL2    -0.180000       12.0110           0
      5879 MEMB     47       DOPC     H14X     HAL2     0.900000E-01   1.00800           0
      5880 MEMB     47       DOPC     H14Y     HAL2     0.900000E-01   1.00800           0
      5881 MEMB     47       DOPC     C315     CTL2    -0.180000       12.0110           0
      5882 MEMB     47       DOPC     H15X     HAL2     0.900000E-01   1.00800           0
      5883 MEMB     47       DOPC     H15Y     HAL2     0.900000E-01   1.00800           0
      5884 MEMB     47       DOPC     C316     CTL2    -0.180000       12.0110           0
      5885 MEMB     47       DOPC     H16X     HAL2     0.900000E-01   1.00800           0
      5886 MEMB     47       DOPC     H16Y     HAL2     0.900000E-01   1.00800           0
      5887 MEMB     47       DOPC     C317     CTL2    -0.180000       12.0110           0
      5888 MEMB     47       DOPC     H17X     HAL2     0.900000E-01   1.00800           0
      5889 MEMB     47       DOPC     H17Y     HAL2     0.900000E-01   1.00800           0
      5890 MEMB     47       DOPC     C318     CTL3    -0.270000       12.0110           0
      5891 MEMB     47       DOPC     H18X     HAL3     0.900000E-01   1.00800           0
      5892 MEMB     47       DOPC     H18Y     HAL3     0.900000E-01   1.00800           0
      5893 MEMB     47       DOPC     H18Z     HAL3     0.900000E-01   1.00800           0
      5894 MEMB     48       CHL1     C3       CRL1     0.140000       12.0110           0
      5895 MEMB     48       CHL1     H3       HGA1     0.900000E-01   1.00800           0
      5896 MEMB     48       CHL1     O3       OHL     -0.660000       15.9994           0
      5897 MEMB     48       CHL1     H3'      HOL      0.430000       1.00800           0
      5898 MEMB     48       CHL1     C4       CRL2    -0.180000       12.0110           0
      5899 MEMB     48       CHL1     H4A      HGA2     0.900000E-01   1.00800           0
      5900 MEMB     48       CHL1     H4B      HGA2     0.900000E-01   1.00800           0
      5901 MEMB     48       CHL1     C5       CEL1      0.00000       12.0110           0
      5902 MEMB     48       CHL1     C6       CEL1    -0.150000       12.0110           0
      5903 MEMB     48       CHL1     H6       HEL1     0.150000       1.00800           0
      5904 MEMB     48       CHL1     C7       CRL2    -0.180000       12.0110           0
      5905 MEMB     48       CHL1     H7A      HGA2     0.900000E-01   1.00800           0
      5906 MEMB     48       CHL1     H7B      HGA2     0.900000E-01   1.00800           0
      5907 MEMB     48       CHL1     C8       CRL1    -0.900000E-01   12.0110           0
      5908 MEMB     48       CHL1     H8       HGA1     0.900000E-01   1.00800           0
      5909 MEMB     48       CHL1     C14      CRL1    -0.900000E-01   12.0110           0
      5910 MEMB     48       CHL1     H14      HGA1     0.900000E-01   1.00800           0
      5911 MEMB     48       CHL1     C15      CRL2    -0.180000       12.0110           0
      5912 MEMB     48       CHL1     H15A     HGA2     0.900000E-01   1.00800           0
      5913 MEMB     48       CHL1     H15B     HGA2     0.900000E-01   1.00800           0
      5914 MEMB     48       CHL1     C16      CRL2    -0.180000       12.0110           0
      5915 MEMB     48       CHL1     H16A     HGA2     0.900000E-01   1.00800           0
      5916 MEMB     48       CHL1     H16B     HGA2     0.900000E-01   1.00800           0
      5917 MEMB     48       CHL1     C17      CRL1    -0.900000E-01   12.0110           0
      5918 MEMB     48       CHL1     H17      HGA1     0.900000E-01   1.00800           0
      5919 MEMB     48       CHL1     C13      CRL1      0.00000       12.0110           0
      5920 MEMB     48       CHL1     C18      CTL3    -0.270000       12.0110           0
      5921 MEMB     48       CHL1     H18A     HAL3     0.900000E-01   1.00800           0
      5922 MEMB     48       CHL1     H18B     HAL3     0.900000E-01   1.00800           0
      5923 MEMB     48       CHL1     H18C     HAL3     0.900000E-01   1.00800           0
      5924 MEMB     48       CHL1     C12      CRL2    -0.180000       12.0110           0
      5925 MEMB     48       CHL1     H12A     HGA2     0.900000E-01   1.00800           0
      5926 MEMB     48       CHL1     H12B     HGA2     0.900000E-01   1.00800           0
      5927 MEMB     48       CHL1     C11      CRL2    -0.180000       12.0110           0
      5928 MEMB     48       CHL1     H11A     HGA2     0.900000E-01   1.00800           0
      5929 MEMB     48       CHL1     H11B     HGA2     0.900000E-01   1.00800           0
      5930 MEMB     48       CHL1     C9       CRL1    -0.900000E-01   12.0110           0
      5931 MEMB     48       CHL1     H9       HGA1     0.900000E-01   1.00800           0
      5932 MEMB     48       CHL1     C10      CRL1      0.00000       12.0110           0
      5933 MEMB     48       CHL1     C19      CTL3    -0.270000       12.0110           0
      5934 MEMB     48       CHL1     H19A     HAL3     0.900000E-01   1.00800           0
      5935 MEMB     48       CHL1     H19B     HAL3     0.900000E-01   1.00800           0
      5936 MEMB     48       CHL1     H19C     HAL3     0.900000E-01   1.00800           0
      5937 MEMB     48       CHL1     C1       CRL2    -0.180000       12.0110           0
      5938 MEMB     48       CHL1     H1A      HGA2     0.900000E-01   1.00800           0
      5939 MEMB     48       CHL1     H1B      HGA2     0.900000E-01   1.00800           0
      5940 MEMB     48       CHL1     C2       CRL2    -0.180000       12.0110           0
      5941 MEMB     48       CHL1     H2A      HGA2     0.900000E-01   1.00800           0
      5942 MEMB     48       CHL1     H2B      HGA2     0.900000E-01   1.00800           0
      5943 MEMB     48       CHL1     C20      CTL1    -0.900000E-01   12.0110           0
      5944 MEMB     48       CHL1     H20      HAL1     0.900000E-01   1.00800           0
      5945 MEMB     48       CHL1     C21      CTL3    -0.270000       12.0110           0
      5946 MEMB     48       CHL1     H21A     HAL3     0.900000E-01   1.00800           0
      5947 MEMB     48       CHL1     H21B     HAL3     0.900000E-01   1.00800           0
      5948 MEMB     48       CHL1     H21C     HAL3     0.900000E-01   1.00800           0
      5949 MEMB     48       CHL1     C22      CTL2    -0.180000       12.0110           0
      5950 MEMB     48       CHL1     H22A     HAL2     0.900000E-01   1.00800           0
      5951 MEMB     48       CHL1     H22B     HAL2     0.900000E-01   1.00800           0
      5952 MEMB     48       CHL1     C23      CTL2    -0.180000       12.0110           0
      5953 MEMB     48       CHL1     H23A     HAL2     0.900000E-01   1.00800           0
      5954 MEMB     48       CHL1     H23B     HAL2     0.900000E-01   1.00800           0
      5955 MEMB     48       CHL1     C24      CTL2    -0.180000       12.0110           0
      5956 MEMB     48       CHL1     H24A     HAL2     0.900000E-01   1.00800           0
      5957 MEMB     48       CHL1     H24B     HAL2     0.900000E-01   1.00800           0
      5958 MEMB     48       CHL1     C25      CTL1    -0.900000E-01   12.0110           0
      5959 MEMB     48       CHL1     H25      HAL1     0.900000E-01   1.00800           0
      5960 MEMB     48       CHL1     C26      CTL3    -0.270000       12.0110           0
      5961 MEMB     48       CHL1     H26A     HAL3     0.900000E-01   1.00800           0
      5962 MEMB     48       CHL1     H26B     HAL3     0.900000E-01   1.00800           0
      5963 MEMB     48       CHL1     H26C     HAL3     0.900000E-01   1.00800           0
      5964 MEMB     48       CHL1     C27      CTL3    -0.270000       12.0110           0
      5965 MEMB     48       CHL1     H27A     HAL3     0.900000E-01   1.00800           0
      5966 MEMB     48       CHL1     H27B     HAL3     0.900000E-01   1.00800           0
      5967 MEMB     48       CHL1     H27C     HAL3     0.900000E-01   1.00800           0
      5968 MEMB     49       23SM     N        NTL     -0.600000       14.0070           0
      5969 MEMB     49       23SM     C15      CTL5    -0.350000       12.0110           0
      5970 MEMB     49       23SM     H15A     HL       0.250000       1.00800           0
      5971 MEMB     49       23SM     H15B     HL       0.250000       1.00800           0
      5972 MEMB     49       23SM     H15C     HL       0.250000       1.00800           0
      5973 MEMB     49       23SM     C14      CTL5    -0.350000       12.0110           0
      5974 MEMB     49       23SM     H14A     HL       0.250000       1.00800           0
      5975 MEMB     49       23SM     H14B     HL       0.250000       1.00800           0
      5976 MEMB     49       23SM     H14C     HL       0.250000       1.00800           0
      5977 MEMB     49       23SM     C13      CTL5    -0.350000       12.0110           0
      5978 MEMB     49       23SM     H13A     HL       0.250000       1.00800           0
      5979 MEMB     49       23SM     H13B     HL       0.250000       1.00800           0
      5980 MEMB     49       23SM     H13C     HL       0.250000       1.00800           0
      5981 MEMB     49       23SM     C12      CTL2    -0.100000       12.0110           0
      5982 MEMB     49       23SM     H12A     HL       0.250000       1.00800           0
      5983 MEMB     49       23SM     H12B     HL       0.250000       1.00800           0
      5984 MEMB     49       23SM     C11      CTL2    -0.800000E-01   12.0110           0
      5985 MEMB     49       23SM     H11A     HAL2     0.900000E-01   1.00800           0
      5986 MEMB     49       23SM     H11B     HAL2     0.900000E-01   1.00800           0
      5987 MEMB     49       23SM     P        PL        1.50000       30.9740           0
      5988 MEMB     49       23SM     O13      O2L     -0.780000       15.9994           0
      5989 MEMB     49       23SM     O14      O2L     -0.780000       15.9994           0
      5990 MEMB     49       23SM     O11      OSLP    -0.570000       15.9994           0
      5991 MEMB     49       23SM     O12      OSLP    -0.570000       15.9994           0
      5992 MEMB     49       23SM     C1S      CTL2    -0.800000E-01   12.0110           0
      5993 MEMB     49       23SM     H1S      HAL2     0.900000E-01   1.00800           0
      5994 MEMB     49       23SM     H1T      HAL2     0.900000E-01   1.00800           0
      5995 MEMB     49       23SM     NF       NHL     -0.700000       14.0070           0
      5996 MEMB     49       23SM     HNF      H        0.350000       1.00800           0
      5997 MEMB     49       23SM     C2S      CTL1     0.300000       12.0110           0
      5998 MEMB     49       23SM     H2S      HAL1     0.500000E-01   1.00800           0
      5999 MEMB     49       23SM     C3S      CTO1     0.500000       12.0110           0
      6000 MEMB     49       23SM     H3S      HAL1    -0.110000       1.00800           0
      6001 MEMB     49       23SM     O3       OHL     -0.690000       15.9994           0
      6002 MEMB     49       23SM     HO3      HOL      0.300000       1.00800           0
      6003 MEMB     49       23SM     C4S      CEL3    -0.150000       12.0110           0
      6004 MEMB     49       23SM     H4S      HEL1     0.150000       1.00800           0
      6005 MEMB     49       23SM     C5S      CEL3    -0.150000       12.0110           0
      6006 MEMB     49       23SM     H5S      HEL1     0.150000       1.00800           0
      6007 MEMB     49       23SM     C6S      CTL2    -0.180000       12.0110           0
      6008 MEMB     49       23SM     H6S      HAL2     0.900000E-01   1.00800           0
      6009 MEMB     49       23SM     H6T      HAL2     0.900000E-01   1.00800           0
      6010 MEMB     49       23SM     C7S      CTL2    -0.180000       12.0110           0
      6011 MEMB     49       23SM     H7S      HAL2     0.900000E-01   1.00800           0
      6012 MEMB     49       23SM     H7T      HAL2     0.900000E-01   1.00800           0
      6013 MEMB     49       23SM     C8S      CTL2    -0.180000       12.0110           0
      6014 MEMB     49       23SM     H8S      HAL2     0.900000E-01   1.00800           0
      6015 MEMB     49       23SM     H8T      HAL2     0.900000E-01   1.00800           0
      6016 MEMB     49       23SM     C9S      CTL2    -0.180000       12.0110           0
      6017 MEMB     49       23SM     H9S      HAL2     0.900000E-01   1.00800           0
      6018 MEMB     49       23SM     H9T      HAL2     0.900000E-01   1.00800           0
      6019 MEMB     49       23SM     C10S     CTL2    -0.180000       12.0110           0
      6020 MEMB     49       23SM     H10S     HAL2     0.900000E-01   1.00800           0
      6021 MEMB     49       23SM     H10T     HAL2     0.900000E-01   1.00800           0
      6022 MEMB     49       23SM     C11S     CTL2    -0.180000       12.0110           0
      6023 MEMB     49       23SM     H11S     HAL2     0.900000E-01   1.00800           0
      6024 MEMB     49       23SM     H11T     HAL2     0.900000E-01   1.00800           0
      6025 MEMB     49       23SM     C12S     CTL2    -0.180000       12.0110           0
      6026 MEMB     49       23SM     H12S     HAL2     0.900000E-01   1.00800           0
      6027 MEMB     49       23SM     H12T     HAL2     0.900000E-01   1.00800           0
      6028 MEMB     49       23SM     C13S     CTL2    -0.180000       12.0110           0
      6029 MEMB     49       23SM     H13S     HAL2     0.900000E-01   1.00800           0
      6030 MEMB     49       23SM     H13T     HAL2     0.900000E-01   1.00800           0
      6031 MEMB     49       23SM     C14S     CTL2    -0.180000       12.0110           0
      6032 MEMB     49       23SM     H14S     HAL2     0.900000E-01   1.00800           0
      6033 MEMB     49       23SM     H14T     HAL2     0.900000E-01   1.00800           0
      6034 MEMB     49       23SM     C15S     CTL2    -0.180000       12.0110           0
      6035 MEMB     49       23SM     H15S     HAL2     0.900000E-01   1.00800           0
      6036 MEMB     49       23SM     H15T     HAL2     0.900000E-01   1.00800           0
      6037 MEMB     49       23SM     C16S     CTL2    -0.180000       12.0110           0
      6038 MEMB     49       23SM     H16S     HAL2     0.900000E-01   1.00800           0
      6039 MEMB     49       23SM     H16T     HAL2     0.900000E-01   1.00800           0
      6040 MEMB     49       23SM     C17S     CTL2    -0.180000       12.0110           0
      6041 MEMB     49       23SM     H17S     HAL2     0.900000E-01   1.00800           0
      6042 MEMB     49       23SM     H17T     HAL2     0.900000E-01   1.00800           0
      6043 MEMB     49       23SM     C18S     CTL3    -0.270000       12.0110           0
      6044 MEMB     49       23SM     H18S     HAL3     0.900000E-01   1.00800           0
      6045 MEMB     49       23SM     H18T     HAL3     0.900000E-01   1.00800           0
      6046 MEMB     49       23SM     H18U     HAL3     0.900000E-01   1.00800           0
      6047 MEMB     49       23SM     C1F      C        0.550000       12.0110           0
      6048 MEMB     49       23SM     OF       O       -0.600000       15.9994           0
      6049 MEMB     49       23SM     C2F      CTL2    -0.700000E-01   12.0110           0
      6050 MEMB     49       23SM     H2F      HAL2     0.600000E-01   1.00800           0
      6051 MEMB     49       23SM     H2G      HAL2     0.600000E-01   1.00800           0
      6052 MEMB     49       23SM     C3F      CTL2    -0.180000       12.0110           0
      6053 MEMB     49       23SM     H3F      HAL2     0.900000E-01   1.00800           0
      6054 MEMB     49       23SM     H3G      HAL2     0.900000E-01   1.00800           0
      6055 MEMB     49       23SM     C4F      CTL2    -0.180000       12.0110           0
      6056 MEMB     49       23SM     H4F      HAL2     0.900000E-01   1.00800           0
      6057 MEMB     49       23SM     H4G      HAL2     0.900000E-01   1.00800           0
      6058 MEMB     49       23SM     C5F      CTL2    -0.180000       12.0110           0
      6059 MEMB     49       23SM     H5F      HAL2     0.900000E-01   1.00800           0
      6060 MEMB     49       23SM     H5G      HAL2     0.900000E-01   1.00800           0
      6061 MEMB     49       23SM     C6F      CTL2    -0.180000       12.0110           0
      6062 MEMB     49       23SM     H6F      HAL2     0.900000E-01   1.00800           0
      6063 MEMB     49       23SM     H6G      HAL2     0.900000E-01   1.00800           0
      6064 MEMB     49       23SM     C7F      CTL2    -0.180000       12.0110           0
      6065 MEMB     49       23SM     H7F      HAL2     0.900000E-01   1.00800           0
      6066 MEMB     49       23SM     H7G      HAL2     0.900000E-01   1.00800           0
      6067 MEMB     49       23SM     C8F      CTL2    -0.180000       12.0110           0
      6068 MEMB     49       23SM     H8F      HAL2     0.900000E-01   1.00800           0
      6069 MEMB     49       23SM     H8G      HAL2     0.900000E-01   1.00800           0
      6070 MEMB     49       23SM     C9F      CTL2    -0.180000       12.0110           0
      6071 MEMB     49       23SM     H9F      HAL2     0.900000E-01   1.00800           0
      6072 MEMB     49       23SM     H9G      HAL2     0.900000E-01   1.00800           0
      6073 MEMB     49       23SM     C10F     CTL2    -0.180000       12.0110           0
      6074 MEMB     49       23SM     H10F     HAL2     0.900000E-01   1.00800           0
      6075 MEMB     49       23SM     H10G     HAL2     0.900000E-01   1.00800           0
      6076 MEMB     49       23SM     C11F     CTL2    -0.180000       12.0110           0
      6077 MEMB     49       23SM     H11F     HAL2     0.900000E-01   1.00800           0
      6078 MEMB     49       23SM     H11G     HAL2     0.900000E-01   1.00800           0
      6079 MEMB     49       23SM     C12F     CTL2    -0.180000       12.0110           0
      6080 MEMB     49       23SM     H12F     HAL2     0.900000E-01   1.00800           0
      6081 MEMB     49       23SM     H12G     HAL2     0.900000E-01   1.00800           0
      6082 MEMB     49       23SM     C13F     CTL2    -0.180000       12.0110           0
      6083 MEMB     49       23SM     H13F     HAL2     0.900000E-01   1.00800           0
      6084 MEMB     49       23SM     H13G     HAL2     0.900000E-01   1.00800           0
      6085 MEMB     49       23SM     C14F     CTL2    -0.180000       12.0110           0
      6086 MEMB     49       23SM     H14F     HAL2     0.900000E-01   1.00800           0
      6087 MEMB     49       23SM     H14G     HAL2     0.900000E-01   1.00800           0
      6088 MEMB     49       23SM     C15F     CTL2    -0.180000       12.0110           0
      6089 MEMB     49       23SM     H15F     HAL2     0.900000E-01   1.00800           0
      6090 MEMB     49       23SM     H15G     HAL2     0.900000E-01   1.00800           0
      6091 MEMB     49       23SM     C16F     CTL2    -0.180000       12.0110           0
      6092 MEMB     49       23SM     H16F     HAL2     0.900000E-01   1.00800           0
      6093 MEMB     49       23SM     H16G     HAL2     0.900000E-01   1.00800           0
      6094 MEMB     49       23SM     C17F     CTL2    -0.180000       12.0110           0
      6095 MEMB     49       23SM     H17F     HAL2     0.900000E-01   1.00800           0
      6096 MEMB     49       23SM     H17G     HAL2     0.900000E-01   1.00800           0
      6097 MEMB     49       23SM     C18F     CTL2    -0.180000       12.0110           0
      6098 MEMB     49       23SM     H18F     HAL2     0.900000E-01   1.00800           0
      6099 MEMB     49       23SM     H18G     HAL2     0.900000E-01   1.00800           0
      6100 MEMB     49       23SM     C19F     CTL2    -0.180000       12.0110           0
      6101 MEMB     49       23SM     H19F     HAL2     0.900000E-01   1.00800           0
      6102 MEMB     49       23SM     H19G     HAL2     0.900000E-01   1.00800           0
      6103 MEMB     49       23SM     C20F     CTL2    -0.180000       12.0110           0
      6104 MEMB     49       23SM     H20F     HAL2     0.900000E-01   1.00800           0
      6105 MEMB     49       23SM     H20G     HAL2     0.900000E-01   1.00800           0
      6106 MEMB     49       23SM     C21F     CTL2    -0.180000       12.0110           0
      6107 MEMB     49       23SM     H21F     HAL2     0.900000E-01   1.00800           0
      6108 MEMB     49       23SM     H21G     HAL2     0.900000E-01   1.00800           0
      6109 MEMB     49       23SM     C22F     CTL2    -0.180000       12.0110           0
      6110 MEMB     49       23SM     H22F     HAL2     0.900000E-01   1.00800           0
      6111 MEMB     49       23SM     H22G     HAL2     0.900000E-01   1.00800           0
      6112 MEMB     49       23SM     C23F     CTL3    -0.270000       12.0110           0
      6113 MEMB     49       23SM     H23F     HAL3     0.900000E-01   1.00800           0
      6114 MEMB     49       23SM     H23G     HAL3     0.900000E-01   1.00800           0
      6115 MEMB     49       23SM     H23H     HAL3     0.900000E-01   1.00800           0
      6116 MEMB     50       23SM     N        NTL     -0.600000       14.0070           0
      6117 MEMB     50       23SM     C15      CTL5    -0.350000       12.0110           0
      6118 MEMB     50       23SM     H15A     HL       0.250000       1.00800           0
      6119 MEMB     50       23SM     H15B     HL       0.250000       1.00800           0
      6120 MEMB     50       23SM     H15C     HL       0.250000       1.00800           0
      6121 MEMB     50       23SM     C14      CTL5    -0.350000       12.0110           0
      6122 MEMB     50       23SM     H14A     HL       0.250000       1.00800           0
      6123 MEMB     50       23SM     H14B     HL       0.250000       1.00800           0
      6124 MEMB     50       23SM     H14C     HL       0.250000       1.00800           0
      6125 MEMB     50       23SM     C13      CTL5    -0.350000       12.0110           0
      6126 MEMB     50       23SM     H13A     HL       0.250000       1.00800           0
      6127 MEMB     50       23SM     H13B     HL       0.250000       1.00800           0
      6128 MEMB     50       23SM     H13C     HL       0.250000       1.00800           0
      6129 MEMB     50       23SM     C12      CTL2    -0.100000       12.0110           0
      6130 MEMB     50       23SM     H12A     HL       0.250000       1.00800           0
      6131 MEMB     50       23SM     H12B     HL       0.250000       1.00800           0
      6132 MEMB     50       23SM     C11      CTL2    -0.800000E-01   12.0110           0
      6133 MEMB     50       23SM     H11A     HAL2     0.900000E-01   1.00800           0
      6134 MEMB     50       23SM     H11B     HAL2     0.900000E-01   1.00800           0
      6135 MEMB     50       23SM     P        PL        1.50000       30.9740           0
      6136 MEMB     50       23SM     O13      O2L     -0.780000       15.9994           0
      6137 MEMB     50       23SM     O14      O2L     -0.780000       15.9994           0
      6138 MEMB     50       23SM     O11      OSLP    -0.570000       15.9994           0
      6139 MEMB     50       23SM     O12      OSLP    -0.570000       15.9994           0
      6140 MEMB     50       23SM     C1S      CTL2    -0.800000E-01   12.0110           0
      6141 MEMB     50       23SM     H1S      HAL2     0.900000E-01   1.00800           0
      6142 MEMB     50       23SM     H1T      HAL2     0.900000E-01   1.00800           0
      6143 MEMB     50       23SM     NF       NHL     -0.700000       14.0070           0
      6144 MEMB     50       23SM     HNF      H        0.350000       1.00800           0
      6145 MEMB     50       23SM     C2S      CTL1     0.300000       12.0110           0
      6146 MEMB     50       23SM     H2S      HAL1     0.500000E-01   1.00800           0
      6147 MEMB     50       23SM     C3S      CTO1     0.500000       12.0110           0
      6148 MEMB     50       23SM     H3S      HAL1    -0.110000       1.00800           0
      6149 MEMB     50       23SM     O3       OHL     -0.690000       15.9994           0
      6150 MEMB     50       23SM     HO3      HOL      0.300000       1.00800           0
      6151 MEMB     50       23SM     C4S      CEL3    -0.150000       12.0110           0
      6152 MEMB     50       23SM     H4S      HEL1     0.150000       1.00800           0
      6153 MEMB     50       23SM     C5S      CEL3    -0.150000       12.0110           0
      6154 MEMB     50       23SM     H5S      HEL1     0.150000       1.00800           0
      6155 MEMB     50       23SM     C6S      CTL2    -0.180000       12.0110           0
      6156 MEMB     50       23SM     H6S      HAL2     0.900000E-01   1.00800           0
      6157 MEMB     50       23SM     H6T      HAL2     0.900000E-01   1.00800           0
      6158 MEMB     50       23SM     C7S      CTL2    -0.180000       12.0110           0
      6159 MEMB     50       23SM     H7S      HAL2     0.900000E-01   1.00800           0
      6160 MEMB     50       23SM     H7T      HAL2     0.900000E-01   1.00800           0
      6161 MEMB     50       23SM     C8S      CTL2    -0.180000       12.0110           0
      6162 MEMB     50       23SM     H8S      HAL2     0.900000E-01   1.00800           0
      6163 MEMB     50       23SM     H8T      HAL2     0.900000E-01   1.00800           0
      6164 MEMB     50       23SM     C9S      CTL2    -0.180000       12.0110           0
      6165 MEMB     50       23SM     H9S      HAL2     0.900000E-01   1.00800           0
      6166 MEMB     50       23SM     H9T      HAL2     0.900000E-01   1.00800           0
      6167 MEMB     50       23SM     C10S     CTL2    -0.180000       12.0110           0
      6168 MEMB     50       23SM     H10S     HAL2     0.900000E-01   1.00800           0
      6169 MEMB     50       23SM     H10T     HAL2     0.900000E-01   1.00800           0
      6170 MEMB     50       23SM     C11S     CTL2    -0.180000       12.0110           0
      6171 MEMB     50       23SM     H11S     HAL2     0.900000E-01   1.00800           0
      6172 MEMB     50       23SM     H11T     HAL2     0.900000E-01   1.00800           0
      6173 MEMB     50       23SM     C12S     CTL2    -0.180000       12.0110           0
      6174 MEMB     50       23SM     H12S     HAL2     0.900000E-01   1.00800           0
      6175 MEMB     50       23SM     H12T     HAL2     0.900000E-01   1.00800           0
      6176 MEMB     50       23SM     C13S     CTL2    -0.180000       12.0110           0
      6177 MEMB     50       23SM     H13S     HAL2     0.900000E-01   1.00800           0
      6178 MEMB     50       23SM     H13T     HAL2     0.900000E-01   1.00800           0
      6179 MEMB     50       23SM     C14S     CTL2    -0.180000       12.0110           0
      6180 MEMB     50       23SM     H14S     HAL2     0.900000E-01   1.00800           0
      6181 MEMB     50       23SM     H14T     HAL2     0.900000E-01   1.00800           0
      6182 MEMB     50       23SM     C15S     CTL2    -0.180000       12.0110           0
      6183 MEMB     50       23SM     H15S     HAL2     0.900000E-01   1.00800           0
      6184 MEMB     50       23SM     H15T     HAL2     0.900000E-01   1.00800           0
      6185 MEMB     50       23SM     C16S     CTL2    -0.180000       12.0110           0
      6186 MEMB     50       23SM     H16S     HAL2     0.900000E-01   1.00800           0
      6187 MEMB     50       23SM     H16T     HAL2     0.900000E-01   1.00800           0
      6188 MEMB     50       23SM     C17S     CTL2    -0.180000       12.0110           0
      6189 MEMB     50       23SM     H17S     HAL2     0.900000E-01   1.00800           0
      6190 MEMB     50       23SM     H17T     HAL2     0.900000E-01   1.00800           0
      6191 MEMB     50       23SM     C18S     CTL3    -0.270000       12.0110           0
      6192 MEMB     50       23SM     H18S     HAL3     0.900000E-01   1.00800           0
      6193 MEMB     50       23SM     H18T     HAL3     0.900000E-01   1.00800           0
      6194 MEMB     50       23SM     H18U     HAL3     0.900000E-01   1.00800           0
      6195 MEMB     50       23SM     C1F      C        0.550000       12.0110           0
      6196 MEMB     50       23SM     OF       O       -0.600000       15.9994           0
      6197 MEMB     50       23SM     C2F      CTL2    -0.700000E-01   12.0110           0
      6198 MEMB     50       23SM     H2F      HAL2     0.600000E-01   1.00800           0
      6199 MEMB     50       23SM     H2G      HAL2     0.600000E-01   1.00800           0
      6200 MEMB     50       23SM     C3F      CTL2    -0.180000       12.0110           0
      6201 MEMB     50       23SM     H3F      HAL2     0.900000E-01   1.00800           0
      6202 MEMB     50       23SM     H3G      HAL2     0.900000E-01   1.00800           0
      6203 MEMB     50       23SM     C4F      CTL2    -0.180000       12.0110           0
      6204 MEMB     50       23SM     H4F      HAL2     0.900000E-01   1.00800           0
      6205 MEMB     50       23SM     H4G      HAL2     0.900000E-01   1.00800           0
      6206 MEMB     50       23SM     C5F      CTL2    -0.180000       12.0110           0
      6207 MEMB     50       23SM     H5F      HAL2     0.900000E-01   1.00800           0
      6208 MEMB     50       23SM     H5G      HAL2     0.900000E-01   1.00800           0
      6209 MEMB     50       23SM     C6F      CTL2    -0.180000       12.0110           0
      6210 MEMB     50       23SM     H6F      HAL2     0.900000E-01   1.00800           0
      6211 MEMB     50       23SM     H6G      HAL2     0.900000E-01   1.00800           0
      6212 MEMB     50       23SM     C7F      CTL2    -0.180000       12.0110           0
      6213 MEMB     50       23SM     H7F      HAL2     0.900000E-01   1.00800           0
      6214 MEMB     50       23SM     H7G      HAL2     0.900000E-01   1.00800           0
      6215 MEMB     50       23SM     C8F      CTL2    -0.180000       12.0110           0
      6216 MEMB     50       23SM     H8F      HAL2     0.900000E-01   1.00800           0
      6217 MEMB     50       23SM     H8G      HAL2     0.900000E-01   1.00800           0
      6218 MEMB     50       23SM     C9F      CTL2    -0.180000       12.0110           0
      6219 MEMB     50       23SM     H9F      HAL2     0.900000E-01   1.00800           0
      6220 MEMB     50       23SM     H9G      HAL2     0.900000E-01   1.00800           0
      6221 MEMB     50       23SM     C10F     CTL2    -0.180000       12.0110           0
      6222 MEMB     50       23SM     H10F     HAL2     0.900000E-01   1.00800           0
      6223 MEMB     50       23SM     H10G     HAL2     0.900000E-01   1.00800           0
      6224 MEMB     50       23SM     C11F     CTL2    -0.180000       12.0110           0
      6225 MEMB     50       23SM     H11F     HAL2     0.900000E-01   1.00800           0
      6226 MEMB     50       23SM     H11G     HAL2     0.900000E-01   1.00800           0
      6227 MEMB     50       23SM     C12F     CTL2    -0.180000       12.0110           0
      6228 MEMB     50       23SM     H12F     HAL2     0.900000E-01   1.00800           0
      6229 MEMB     50       23SM     H12G     HAL2     0.900000E-01   1.00800           0
      6230 MEMB     50       23SM     C13F     CTL2    -0.180000       12.0110           0
      6231 MEMB     50       23SM     H13F     HAL2     0.900000E-01   1.00800           0
      6232 MEMB     50       23SM     H13G     HAL2     0.900000E-01   1.00800           0
      6233 MEMB     50       23SM     C14F     CTL2    -0.180000       12.0110           0
      6234 MEMB     50       23SM     H14F     HAL2     0.900000E-01   1.00800           0
      6235 MEMB     50       23SM     H14G     HAL2     0.900000E-01   1.00800           0
      6236 MEMB     50       23SM     C15F     CTL2    -0.180000       12.0110           0
      6237 MEMB     50       23SM     H15F     HAL2     0.900000E-01   1.00800           0
      6238 MEMB     50       23SM     H15G     HAL2     0.900000E-01   1.00800           0
      6239 MEMB     50       23SM     C16F     CTL2    -0.180000       12.0110           0
      6240 MEMB     50       23SM     H16F     HAL2     0.900000E-01   1.00800           0
      6241 MEMB     50       23SM     H16G     HAL2     0.900000E-01   1.00800           0
      6242 MEMB     50       23SM     C17F     CTL2    -0.180000       12.0110           0
      6243 MEMB     50       23SM     H17F     HAL2     0.900000E-01   1.00800           0
      6244 MEMB     50       23SM     H17G     HAL2     0.900000E-01   1.00800           0
      6245 MEMB     50       23SM     C18F     CTL2    -0.180000       12.0110           0
      6246 MEMB     50       23SM     H18F     HAL2     0.900000E-01   1.00800           0
      6247 MEMB     50       23SM     H18G     HAL2     0.900000E-01   1.00800           0
      6248 MEMB     50       23SM     C19F     CTL2    -0.180000       12.0110           0
      6249 MEMB     50       23SM     H19F     HAL2     0.900000E-01   1.00800           0
      6250 MEMB     50       23SM     H19G     HAL2     0.900000E-01   1.00800           0
      6251 MEMB     50       23SM     C20F     CTL2    -0.180000       12.0110           0
      6252 MEMB     50       23SM     H20F     HAL2     0.900000E-01   1.00800           0
      6253 MEMB     50       23SM     H20G     HAL2     0.900000E-01   1.00800           0
      6254 MEMB     50       23SM     C21F     CTL2    -0.180000       12.0110           0
      6255 MEMB     50       23SM     H21F     HAL2     0.900000E-01   1.00800           0
      6256 MEMB     50       23SM     H21G     HAL2     0.900000E-01   1.00800           0
      6257 MEMB     50       23SM     C22F     CTL2    -0.180000       12.0110           0
      6258 MEMB     50       23SM     H22F     HAL2     0.900000E-01   1.00800           0
      6259 MEMB     50       23SM     H22G     HAL2     0.900000E-01   1.00800           0
      6260 MEMB     50       23SM     C23F     CTL3    -0.270000       12.0110           0
      6261 MEMB     50       23SM     H23F     HAL3     0.900000E-01   1.00800           0
      6262 MEMB     50       23SM     H23G     HAL3     0.900000E-01   1.00800           0
      6263 MEMB     50       23SM     H23H     HAL3     0.900000E-01   1.00800           0
      6264 MEMB     51       DOPE     N        NH3L    -0.300000       14.0070           0
      6265 MEMB     51       DOPE     HN1      HCL      0.330000       1.00800           0
      6266 MEMB     51       DOPE     HN2      HCL      0.330000       1.00800           0
      6267 MEMB     51       DOPE     HN3      HCL      0.330000       1.00800           0
      6268 MEMB     51       DOPE     C12      CTL2     0.130000       12.0110           0
      6269 MEMB     51       DOPE     H12A     HAL2     0.900000E-01   1.00800           0
      6270 MEMB     51       DOPE     H12B     HAL2     0.900000E-01   1.00800           0
      6271 MEMB     51       DOPE     C11      CTL2    -0.800000E-01   12.0110           0
      6272 MEMB     51       DOPE     H11A     HAL2     0.900000E-01   1.00800           0
      6273 MEMB     51       DOPE     H11B     HAL2     0.900000E-01   1.00800           0
      6274 MEMB     51       DOPE     P        PL        1.50000       30.9740           0
      6275 MEMB     51       DOPE     O13      O2L     -0.780000       15.9994           0
      6276 MEMB     51       DOPE     O14      O2L     -0.780000       15.9994           0
      6277 MEMB     51       DOPE     O11      OSLP    -0.570000       15.9994           0
      6278 MEMB     51       DOPE     O12      OSLP    -0.570000       15.9994           0
      6279 MEMB     51       DOPE     C1       CTL2    -0.800000E-01   12.0110           0
      6280 MEMB     51       DOPE     HA       HAL2     0.900000E-01   1.00800           0
      6281 MEMB     51       DOPE     HB       HAL2     0.900000E-01   1.00800           0
      6282 MEMB     51       DOPE     C2       CTL1     0.170000       12.0110           0
      6283 MEMB     51       DOPE     HS       HAL1     0.900000E-01   1.00800           0
      6284 MEMB     51       DOPE     O21      OSL     -0.490000       15.9994           0
      6285 MEMB     51       DOPE     C21      CL       0.900000       12.0110           0
      6286 MEMB     51       DOPE     O22      OBL     -0.630000       15.9994           0
      6287 MEMB     51       DOPE     C22      CTL2    -0.220000       12.0110           0
      6288 MEMB     51       DOPE     H2R      HAL2     0.900000E-01   1.00800           0
      6289 MEMB     51       DOPE     H2S      HAL2     0.900000E-01   1.00800           0
      6290 MEMB     51       DOPE     C3       CTL2     0.800000E-01   12.0110           0
      6291 MEMB     51       DOPE     HX       HAL2     0.900000E-01   1.00800           0
      6292 MEMB     51       DOPE     HY       HAL2     0.900000E-01   1.00800           0
      6293 MEMB     51       DOPE     O31      OSL     -0.490000       15.9994           0
      6294 MEMB     51       DOPE     C31      CL       0.900000       12.0110           0
      6295 MEMB     51       DOPE     O32      OBL     -0.630000       15.9994           0
      6296 MEMB     51       DOPE     C32      CTL2    -0.220000       12.0110           0
      6297 MEMB     51       DOPE     H2X      HAL2     0.900000E-01   1.00800           0
      6298 MEMB     51       DOPE     H2Y      HAL2     0.900000E-01   1.00800           0
      6299 MEMB     51       DOPE     C23      CTL2    -0.180000       12.0110           0
      6300 MEMB     51       DOPE     H3R      HAL2     0.900000E-01   1.00800           0
      6301 MEMB     51       DOPE     H3S      HAL2     0.900000E-01   1.00800           0
      6302 MEMB     51       DOPE     C24      CTL2    -0.180000       12.0110           0
      6303 MEMB     51       DOPE     H4R      HAL2     0.900000E-01   1.00800           0
      6304 MEMB     51       DOPE     H4S      HAL2     0.900000E-01   1.00800           0
      6305 MEMB     51       DOPE     C25      CTL2    -0.180000       12.0110           0
      6306 MEMB     51       DOPE     H5R      HAL2     0.900000E-01   1.00800           0
      6307 MEMB     51       DOPE     H5S      HAL2     0.900000E-01   1.00800           0
      6308 MEMB     51       DOPE     C26      CTL2    -0.180000       12.0110           0
      6309 MEMB     51       DOPE     H6R      HAL2     0.900000E-01   1.00800           0
      6310 MEMB     51       DOPE     H6S      HAL2     0.900000E-01   1.00800           0
      6311 MEMB     51       DOPE     C27      CTL2    -0.180000       12.0110           0
      6312 MEMB     51       DOPE     H7R      HAL2     0.900000E-01   1.00800           0
      6313 MEMB     51       DOPE     H7S      HAL2     0.900000E-01   1.00800           0
      6314 MEMB     51       DOPE     C28      CTL2    -0.180000       12.0110           0
      6315 MEMB     51       DOPE     H8R      HAL2     0.900000E-01   1.00800           0
      6316 MEMB     51       DOPE     H8S      HAL2     0.900000E-01   1.00800           0
      6317 MEMB     51       DOPE     C29      CEL1    -0.150000       12.0110           0
      6318 MEMB     51       DOPE     H9R      HEL1     0.150000       1.00800           0
      6319 MEMB     51       DOPE     C210     CEL1    -0.150000       12.0110           0
      6320 MEMB     51       DOPE     H10R     HEL1     0.150000       1.00800           0
      6321 MEMB     51       DOPE     C211     CTL2    -0.180000       12.0110           0
      6322 MEMB     51       DOPE     H11R     HAL2     0.900000E-01   1.00800           0
      6323 MEMB     51       DOPE     H11S     HAL2     0.900000E-01   1.00800           0
      6324 MEMB     51       DOPE     C212     CTL2    -0.180000       12.0110           0
      6325 MEMB     51       DOPE     H12R     HAL2     0.900000E-01   1.00800           0
      6326 MEMB     51       DOPE     H12S     HAL2     0.900000E-01   1.00800           0
      6327 MEMB     51       DOPE     C213     CTL2    -0.180000       12.0110           0
      6328 MEMB     51       DOPE     H13R     HAL2     0.900000E-01   1.00800           0
      6329 MEMB     51       DOPE     H13S     HAL2     0.900000E-01   1.00800           0
      6330 MEMB     51       DOPE     C214     CTL2    -0.180000       12.0110           0
      6331 MEMB     51       DOPE     H14R     HAL2     0.900000E-01   1.00800           0
      6332 MEMB     51       DOPE     H14S     HAL2     0.900000E-01   1.00800           0
      6333 MEMB     51       DOPE     C215     CTL2    -0.180000       12.0110           0
      6334 MEMB     51       DOPE     H15R     HAL2     0.900000E-01   1.00800           0
      6335 MEMB     51       DOPE     H15S     HAL2     0.900000E-01   1.00800           0
      6336 MEMB     51       DOPE     C216     CTL2    -0.180000       12.0110           0
      6337 MEMB     51       DOPE     H16R     HAL2     0.900000E-01   1.00800           0
      6338 MEMB     51       DOPE     H16S     HAL2     0.900000E-01   1.00800           0
      6339 MEMB     51       DOPE     C217     CTL2    -0.180000       12.0110           0
      6340 MEMB     51       DOPE     H17R     HAL2     0.900000E-01   1.00800           0
      6341 MEMB     51       DOPE     H17S     HAL2     0.900000E-01   1.00800           0
      6342 MEMB     51       DOPE     C218     CTL3    -0.270000       12.0110           0
      6343 MEMB     51       DOPE     H18R     HAL3     0.900000E-01   1.00800           0
      6344 MEMB     51       DOPE     H18S     HAL3     0.900000E-01   1.00800           0
      6345 MEMB     51       DOPE     H18T     HAL3     0.900000E-01   1.00800           0
      6346 MEMB     51       DOPE     C33      CTL2    -0.180000       12.0110           0
      6347 MEMB     51       DOPE     H3X      HAL2     0.900000E-01   1.00800           0
      6348 MEMB     51       DOPE     H3Y      HAL2     0.900000E-01   1.00800           0
      6349 MEMB     51       DOPE     C34      CTL2    -0.180000       12.0110           0
      6350 MEMB     51       DOPE     H4X      HAL2     0.900000E-01   1.00800           0
      6351 MEMB     51       DOPE     H4Y      HAL2     0.900000E-01   1.00800           0
      6352 MEMB     51       DOPE     C35      CTL2    -0.180000       12.0110           0
      6353 MEMB     51       DOPE     H5X      HAL2     0.900000E-01   1.00800           0
      6354 MEMB     51       DOPE     H5Y      HAL2     0.900000E-01   1.00800           0
      6355 MEMB     51       DOPE     C36      CTL2    -0.180000       12.0110           0
      6356 MEMB     51       DOPE     H6X      HAL2     0.900000E-01   1.00800           0
      6357 MEMB     51       DOPE     H6Y      HAL2     0.900000E-01   1.00800           0
      6358 MEMB     51       DOPE     C37      CTL2    -0.180000       12.0110           0
      6359 MEMB     51       DOPE     H7X      HAL2     0.900000E-01   1.00800           0
      6360 MEMB     51       DOPE     H7Y      HAL2     0.900000E-01   1.00800           0
      6361 MEMB     51       DOPE     C38      CTL2    -0.180000       12.0110           0
      6362 MEMB     51       DOPE     H8X      HAL2     0.900000E-01   1.00800           0
      6363 MEMB     51       DOPE     H8Y      HAL2     0.900000E-01   1.00800           0
      6364 MEMB     51       DOPE     C39      CEL1    -0.150000       12.0110           0
      6365 MEMB     51       DOPE     H9X      HEL1     0.150000       1.00800           0
      6366 MEMB     51       DOPE     C310     CEL1    -0.150000       12.0110           0
      6367 MEMB     51       DOPE     H10X     HEL1     0.150000       1.00800           0
      6368 MEMB     51       DOPE     C311     CTL2    -0.180000       12.0110           0
      6369 MEMB     51       DOPE     H11X     HAL2     0.900000E-01   1.00800           0
      6370 MEMB     51       DOPE     H11Y     HAL2     0.900000E-01   1.00800           0
      6371 MEMB     51       DOPE     C312     CTL2    -0.180000       12.0110           0
      6372 MEMB     51       DOPE     H12X     HAL2     0.900000E-01   1.00800           0
      6373 MEMB     51       DOPE     H12Y     HAL2     0.900000E-01   1.00800           0
      6374 MEMB     51       DOPE     C313     CTL2    -0.180000       12.0110           0
      6375 MEMB     51       DOPE     H13X     HAL2     0.900000E-01   1.00800           0
      6376 MEMB     51       DOPE     H13Y     HAL2     0.900000E-01   1.00800           0
      6377 MEMB     51       DOPE     C314     CTL2    -0.180000       12.0110           0
      6378 MEMB     51       DOPE     H14X     HAL2     0.900000E-01   1.00800           0
      6379 MEMB     51       DOPE     H14Y     HAL2     0.900000E-01   1.00800           0
      6380 MEMB     51       DOPE     C315     CTL2    -0.180000       12.0110           0
      6381 MEMB     51       DOPE     H15X     HAL2     0.900000E-01   1.00800           0
      6382 MEMB     51       DOPE     H15Y     HAL2     0.900000E-01   1.00800           0
      6383 MEMB     51       DOPE     C316     CTL2    -0.180000       12.0110           0
      6384 MEMB     51       DOPE     H16X     HAL2     0.900000E-01   1.00800           0
      6385 MEMB     51       DOPE     H16Y     HAL2     0.900000E-01   1.00800           0
      6386 MEMB     51       DOPE     C317     CTL2    -0.180000       12.0110           0
      6387 MEMB     51       DOPE     H17X     HAL2     0.900000E-01   1.00800           0
      6388 MEMB     51       DOPE     H17Y     HAL2     0.900000E-01   1.00800           0
      6389 MEMB     51       DOPE     C318     CTL3    -0.270000       12.0110           0
      6390 MEMB     51       DOPE     H18X     HAL3     0.900000E-01   1.00800           0
      6391 MEMB     51       DOPE     H18Y     HAL3     0.900000E-01   1.00800           0
      6392 MEMB     51       DOPE     H18Z     HAL3     0.900000E-01   1.00800           0
      6393 MEMB     52       DOPC     N        NTL     -0.600000       14.0070           0
      6394 MEMB     52       DOPC     C12      CTL2    -0.100000       12.0110           0
      6395 MEMB     52       DOPC     H12A     HL       0.250000       1.00800           0
      6396 MEMB     52       DOPC     H12B     HL       0.250000       1.00800           0
      6397 MEMB     52       DOPC     C13      CTL5    -0.350000       12.0110           0
      6398 MEMB     52       DOPC     H13A     HL       0.250000       1.00800           0
      6399 MEMB     52       DOPC     H13B     HL       0.250000       1.00800           0
      6400 MEMB     52       DOPC     H13C     HL       0.250000       1.00800           0
      6401 MEMB     52       DOPC     C14      CTL5    -0.350000       12.0110           0
      6402 MEMB     52       DOPC     H14A     HL       0.250000       1.00800           0
      6403 MEMB     52       DOPC     H14B     HL       0.250000       1.00800           0
      6404 MEMB     52       DOPC     H14C     HL       0.250000       1.00800           0
      6405 MEMB     52       DOPC     C15      CTL5    -0.350000       12.0110           0
      6406 MEMB     52       DOPC     H15A     HL       0.250000       1.00800           0
      6407 MEMB     52       DOPC     H15B     HL       0.250000       1.00800           0
      6408 MEMB     52       DOPC     H15C     HL       0.250000       1.00800           0
      6409 MEMB     52       DOPC     C11      CTL2    -0.800000E-01   12.0110           0
      6410 MEMB     52       DOPC     H11A     HAL2     0.900000E-01   1.00800           0
      6411 MEMB     52       DOPC     H11B     HAL2     0.900000E-01   1.00800           0
      6412 MEMB     52       DOPC     P        PL        1.50000       30.9740           0
      6413 MEMB     52       DOPC     O13      O2L     -0.780000       15.9994           0
      6414 MEMB     52       DOPC     O14      O2L     -0.780000       15.9994           0
      6415 MEMB     52       DOPC     O12      OSLP    -0.570000       15.9994           0
      6416 MEMB     52       DOPC     O11      OSLP    -0.570000       15.9994           0
      6417 MEMB     52       DOPC     C1       CTL2    -0.800000E-01   12.0110           0
      6418 MEMB     52       DOPC     HA       HAL2     0.900000E-01   1.00800           0
      6419 MEMB     52       DOPC     HB       HAL2     0.900000E-01   1.00800           0
      6420 MEMB     52       DOPC     C2       CTL1     0.170000       12.0110           0
      6421 MEMB     52       DOPC     HS       HAL1     0.900000E-01   1.00800           0
      6422 MEMB     52       DOPC     O21      OSL     -0.490000       15.9994           0
      6423 MEMB     52       DOPC     C21      CL       0.900000       12.0110           0
      6424 MEMB     52       DOPC     O22      OBL     -0.630000       15.9994           0
      6425 MEMB     52       DOPC     C22      CTL2    -0.220000       12.0110           0
      6426 MEMB     52       DOPC     H2R      HAL2     0.900000E-01   1.00800           0
      6427 MEMB     52       DOPC     H2S      HAL2     0.900000E-01   1.00800           0
      6428 MEMB     52       DOPC     C3       CTL2     0.800000E-01   12.0110           0
      6429 MEMB     52       DOPC     HX       HAL2     0.900000E-01   1.00800           0
      6430 MEMB     52       DOPC     HY       HAL2     0.900000E-01   1.00800           0
      6431 MEMB     52       DOPC     O31      OSL     -0.490000       15.9994           0
      6432 MEMB     52       DOPC     C31      CL       0.900000       12.0110           0
      6433 MEMB     52       DOPC     O32      OBL     -0.630000       15.9994           0
      6434 MEMB     52       DOPC     C32      CTL2    -0.220000       12.0110           0
      6435 MEMB     52       DOPC     H2X      HAL2     0.900000E-01   1.00800           0
      6436 MEMB     52       DOPC     H2Y      HAL2     0.900000E-01   1.00800           0
      6437 MEMB     52       DOPC     C23      CTL2    -0.180000       12.0110           0
      6438 MEMB     52       DOPC     H3R      HAL2     0.900000E-01   1.00800           0
      6439 MEMB     52       DOPC     H3S      HAL2     0.900000E-01   1.00800           0
      6440 MEMB     52       DOPC     C24      CTL2    -0.180000       12.0110           0
      6441 MEMB     52       DOPC     H4R      HAL2     0.900000E-01   1.00800           0
      6442 MEMB     52       DOPC     H4S      HAL2     0.900000E-01   1.00800           0
      6443 MEMB     52       DOPC     C25      CTL2    -0.180000       12.0110           0
      6444 MEMB     52       DOPC     H5R      HAL2     0.900000E-01   1.00800           0
      6445 MEMB     52       DOPC     H5S      HAL2     0.900000E-01   1.00800           0
      6446 MEMB     52       DOPC     C26      CTL2    -0.180000       12.0110           0
      6447 MEMB     52       DOPC     H6R      HAL2     0.900000E-01   1.00800           0
      6448 MEMB     52       DOPC     H6S      HAL2     0.900000E-01   1.00800           0
      6449 MEMB     52       DOPC     C27      CTL2    -0.180000       12.0110           0
      6450 MEMB     52       DOPC     H7R      HAL2     0.900000E-01   1.00800           0
      6451 MEMB     52       DOPC     H7S      HAL2     0.900000E-01   1.00800           0
      6452 MEMB     52       DOPC     C28      CTL2    -0.180000       12.0110           0
      6453 MEMB     52       DOPC     H8R      HAL2     0.900000E-01   1.00800           0
      6454 MEMB     52       DOPC     H8S      HAL2     0.900000E-01   1.00800           0
      6455 MEMB     52       DOPC     C29      CEL1    -0.150000       12.0110           0
      6456 MEMB     52       DOPC     H9R      HEL1     0.150000       1.00800           0
      6457 MEMB     52       DOPC     C210     CEL1    -0.150000       12.0110           0
      6458 MEMB     52       DOPC     H10R     HEL1     0.150000       1.00800           0
      6459 MEMB     52       DOPC     C211     CTL2    -0.180000       12.0110           0
      6460 MEMB     52       DOPC     H11R     HAL2     0.900000E-01   1.00800           0
      6461 MEMB     52       DOPC     H11S     HAL2     0.900000E-01   1.00800           0
      6462 MEMB     52       DOPC     C212     CTL2    -0.180000       12.0110           0
      6463 MEMB     52       DOPC     H12R     HAL2     0.900000E-01   1.00800           0
      6464 MEMB     52       DOPC     H12S     HAL2     0.900000E-01   1.00800           0
      6465 MEMB     52       DOPC     C213     CTL2    -0.180000       12.0110           0
      6466 MEMB     52       DOPC     H13R     HAL2     0.900000E-01   1.00800           0
      6467 MEMB     52       DOPC     H13S     HAL2     0.900000E-01   1.00800           0
      6468 MEMB     52       DOPC     C214     CTL2    -0.180000       12.0110           0
      6469 MEMB     52       DOPC     H14R     HAL2     0.900000E-01   1.00800           0
      6470 MEMB     52       DOPC     H14S     HAL2     0.900000E-01   1.00800           0
      6471 MEMB     52       DOPC     C215     CTL2    -0.180000       12.0110           0
      6472 MEMB     52       DOPC     H15R     HAL2     0.900000E-01   1.00800           0
      6473 MEMB     52       DOPC     H15S     HAL2     0.900000E-01   1.00800           0
      6474 MEMB     52       DOPC     C216     CTL2    -0.180000       12.0110           0
      6475 MEMB     52       DOPC     H16R     HAL2     0.900000E-01   1.00800           0
      6476 MEMB     52       DOPC     H16S     HAL2     0.900000E-01   1.00800           0
      6477 MEMB     52       DOPC     C217     CTL2    -0.180000       12.0110           0
      6478 MEMB     52       DOPC     H17R     HAL2     0.900000E-01   1.00800           0
      6479 MEMB     52       DOPC     H17S     HAL2     0.900000E-01   1.00800           0
      6480 MEMB     52       DOPC     C218     CTL3    -0.270000       12.0110           0
      6481 MEMB     52       DOPC     H18R     HAL3     0.900000E-01   1.00800           0
      6482 MEMB     52       DOPC     H18S     HAL3     0.900000E-01   1.00800           0
      6483 MEMB     52       DOPC     H18T     HAL3     0.900000E-01   1.00800           0
      6484 MEMB     52       DOPC     C33      CTL2    -0.180000       12.0110           0
      6485 MEMB     52       DOPC     H3X      HAL2     0.900000E-01   1.00800           0
      6486 MEMB     52       DOPC     H3Y      HAL2     0.900000E-01   1.00800           0
      6487 MEMB     52       DOPC     C34      CTL2    -0.180000       12.0110           0
      6488 MEMB     52       DOPC     H4X      HAL2     0.900000E-01   1.00800           0
      6489 MEMB     52       DOPC     H4Y      HAL2     0.900000E-01   1.00800           0
      6490 MEMB     52       DOPC     C35      CTL2    -0.180000       12.0110           0
      6491 MEMB     52       DOPC     H5X      HAL2     0.900000E-01   1.00800           0
      6492 MEMB     52       DOPC     H5Y      HAL2     0.900000E-01   1.00800           0
      6493 MEMB     52       DOPC     C36      CTL2    -0.180000       12.0110           0
      6494 MEMB     52       DOPC     H6X      HAL2     0.900000E-01   1.00800           0
      6495 MEMB     52       DOPC     H6Y      HAL2     0.900000E-01   1.00800           0
      6496 MEMB     52       DOPC     C37      CTL2    -0.180000       12.0110           0
      6497 MEMB     52       DOPC     H7X      HAL2     0.900000E-01   1.00800           0
      6498 MEMB     52       DOPC     H7Y      HAL2     0.900000E-01   1.00800           0
      6499 MEMB     52       DOPC     C38      CTL2    -0.180000       12.0110           0
      6500 MEMB     52       DOPC     H8X      HAL2     0.900000E-01   1.00800           0
      6501 MEMB     52       DOPC     H8Y      HAL2     0.900000E-01   1.00800           0
      6502 MEMB     52       DOPC     C39      CEL1    -0.150000       12.0110           0
      6503 MEMB     52       DOPC     H9X      HEL1     0.150000       1.00800           0
      6504 MEMB     52       DOPC     C310     CEL1    -0.150000       12.0110           0
      6505 MEMB     52       DOPC     H10X     HEL1     0.150000       1.00800           0
      6506 MEMB     52       DOPC     C311     CTL2    -0.180000       12.0110           0
      6507 MEMB     52       DOPC     H11X     HAL2     0.900000E-01   1.00800           0
      6508 MEMB     52       DOPC     H11Y     HAL2     0.900000E-01   1.00800           0
      6509 MEMB     52       DOPC     C312     CTL2    -0.180000       12.0110           0
      6510 MEMB     52       DOPC     H12X     HAL2     0.900000E-01   1.00800           0
      6511 MEMB     52       DOPC     H12Y     HAL2     0.900000E-01   1.00800           0
      6512 MEMB     52       DOPC     C313     CTL2    -0.180000       12.0110           0
      6513 MEMB     52       DOPC     H13X     HAL2     0.900000E-01   1.00800           0
      6514 MEMB     52       DOPC     H13Y     HAL2     0.900000E-01   1.00800           0
      6515 MEMB     52       DOPC     C314     CTL2    -0.180000       12.0110           0
      6516 MEMB     52       DOPC     H14X     HAL2     0.900000E-01   1.00800           0
      6517 MEMB     52       DOPC     H14Y     HAL2     0.900000E-01   1.00800           0
      6518 MEMB     52       DOPC     C315     CTL2    -0.180000       12.0110           0
      6519 MEMB     52       DOPC     H15X     HAL2     0.900000E-01   1.00800           0
      6520 MEMB     52       DOPC     H15Y     HAL2     0.900000E-01   1.00800           0
      6521 MEMB     52       DOPC     C316     CTL2    -0.180000       12.0110           0
      6522 MEMB     52       DOPC     H16X     HAL2     0.900000E-01   1.00800           0
      6523 MEMB     52       DOPC     H16Y     HAL2     0.900000E-01   1.00800           0
      6524 MEMB     52       DOPC     C317     CTL2    -0.180000       12.0110           0
      6525 MEMB     52       DOPC     H17X     HAL2     0.900000E-01   1.00800           0
      6526 MEMB     52       DOPC     H17Y     HAL2     0.900000E-01   1.00800           0
      6527 MEMB     52       DOPC     C318     CTL3    -0.270000       12.0110           0
      6528 MEMB     52       DOPC     H18X     HAL3     0.900000E-01   1.00800           0
      6529 MEMB     52       DOPC     H18Y     HAL3     0.900000E-01   1.00800           0
      6530 MEMB     52       DOPC     H18Z     HAL3     0.900000E-01   1.00800           0
      6531 MEMB     53       23SM     N        NTL     -0.600000       14.0070           0
      6532 MEMB     53       23SM     C15      CTL5    -0.350000       12.0110           0
      6533 MEMB     53       23SM     H15A     HL       0.250000       1.00800           0
      6534 MEMB     53       23SM     H15B     HL       0.250000       1.00800           0
      6535 MEMB     53       23SM     H15C     HL       0.250000       1.00800           0
      6536 MEMB     53       23SM     C14      CTL5    -0.350000       12.0110           0
      6537 MEMB     53       23SM     H14A     HL       0.250000       1.00800           0
      6538 MEMB     53       23SM     H14B     HL       0.250000       1.00800           0
      6539 MEMB     53       23SM     H14C     HL       0.250000       1.00800           0
      6540 MEMB     53       23SM     C13      CTL5    -0.350000       12.0110           0
      6541 MEMB     53       23SM     H13A     HL       0.250000       1.00800           0
      6542 MEMB     53       23SM     H13B     HL       0.250000       1.00800           0
      6543 MEMB     53       23SM     H13C     HL       0.250000       1.00800           0
      6544 MEMB     53       23SM     C12      CTL2    -0.100000       12.0110           0
      6545 MEMB     53       23SM     H12A     HL       0.250000       1.00800           0
      6546 MEMB     53       23SM     H12B     HL       0.250000       1.00800           0
      6547 MEMB     53       23SM     C11      CTL2    -0.800000E-01   12.0110           0
      6548 MEMB     53       23SM     H11A     HAL2     0.900000E-01   1.00800           0
      6549 MEMB     53       23SM     H11B     HAL2     0.900000E-01   1.00800           0
      6550 MEMB     53       23SM     P        PL        1.50000       30.9740           0
      6551 MEMB     53       23SM     O13      O2L     -0.780000       15.9994           0
      6552 MEMB     53       23SM     O14      O2L     -0.780000       15.9994           0
      6553 MEMB     53       23SM     O11      OSLP    -0.570000       15.9994           0
      6554 MEMB     53       23SM     O12      OSLP    -0.570000       15.9994           0
      6555 MEMB     53       23SM     C1S      CTL2    -0.800000E-01   12.0110           0
      6556 MEMB     53       23SM     H1S      HAL2     0.900000E-01   1.00800           0
      6557 MEMB     53       23SM     H1T      HAL2     0.900000E-01   1.00800           0
      6558 MEMB     53       23SM     NF       NHL     -0.700000       14.0070           0
      6559 MEMB     53       23SM     HNF      H        0.350000       1.00800           0
      6560 MEMB     53       23SM     C2S      CTL1     0.300000       12.0110           0
      6561 MEMB     53       23SM     H2S      HAL1     0.500000E-01   1.00800           0
      6562 MEMB     53       23SM     C3S      CTO1     0.500000       12.0110           0
      6563 MEMB     53       23SM     H3S      HAL1    -0.110000       1.00800           0
      6564 MEMB     53       23SM     O3       OHL     -0.690000       15.9994           0
      6565 MEMB     53       23SM     HO3      HOL      0.300000       1.00800           0
      6566 MEMB     53       23SM     C4S      CEL3    -0.150000       12.0110           0
      6567 MEMB     53       23SM     H4S      HEL1     0.150000       1.00800           0
      6568 MEMB     53       23SM     C5S      CEL3    -0.150000       12.0110           0
      6569 MEMB     53       23SM     H5S      HEL1     0.150000       1.00800           0
      6570 MEMB     53       23SM     C6S      CTL2    -0.180000       12.0110           0
      6571 MEMB     53       23SM     H6S      HAL2     0.900000E-01   1.00800           0
      6572 MEMB     53       23SM     H6T      HAL2     0.900000E-01   1.00800           0
      6573 MEMB     53       23SM     C7S      CTL2    -0.180000       12.0110           0
      6574 MEMB     53       23SM     H7S      HAL2     0.900000E-01   1.00800           0
      6575 MEMB     53       23SM     H7T      HAL2     0.900000E-01   1.00800           0
      6576 MEMB     53       23SM     C8S      CTL2    -0.180000       12.0110           0
      6577 MEMB     53       23SM     H8S      HAL2     0.900000E-01   1.00800           0
      6578 MEMB     53       23SM     H8T      HAL2     0.900000E-01   1.00800           0
      6579 MEMB     53       23SM     C9S      CTL2    -0.180000       12.0110           0
      6580 MEMB     53       23SM     H9S      HAL2     0.900000E-01   1.00800           0
      6581 MEMB     53       23SM     H9T      HAL2     0.900000E-01   1.00800           0
      6582 MEMB     53       23SM     C10S     CTL2    -0.180000       12.0110           0
      6583 MEMB     53       23SM     H10S     HAL2     0.900000E-01   1.00800           0
      6584 MEMB     53       23SM     H10T     HAL2     0.900000E-01   1.00800           0
      6585 MEMB     53       23SM     C11S     CTL2    -0.180000       12.0110           0
      6586 MEMB     53       23SM     H11S     HAL2     0.900000E-01   1.00800           0
      6587 MEMB     53       23SM     H11T     HAL2     0.900000E-01   1.00800           0
      6588 MEMB     53       23SM     C12S     CTL2    -0.180000       12.0110           0
      6589 MEMB     53       23SM     H12S     HAL2     0.900000E-01   1.00800           0
      6590 MEMB     53       23SM     H12T     HAL2     0.900000E-01   1.00800           0
      6591 MEMB     53       23SM     C13S     CTL2    -0.180000       12.0110           0
      6592 MEMB     53       23SM     H13S     HAL2     0.900000E-01   1.00800           0
      6593 MEMB     53       23SM     H13T     HAL2     0.900000E-01   1.00800           0
      6594 MEMB     53       23SM     C14S     CTL2    -0.180000       12.0110           0
      6595 MEMB     53       23SM     H14S     HAL2     0.900000E-01   1.00800           0
      6596 MEMB     53       23SM     H14T     HAL2     0.900000E-01   1.00800           0
      6597 MEMB     53       23SM     C15S     CTL2    -0.180000       12.0110           0
      6598 MEMB     53       23SM     H15S     HAL2     0.900000E-01   1.00800           0
      6599 MEMB     53       23SM     H15T     HAL2     0.900000E-01   1.00800           0
      6600 MEMB     53       23SM     C16S     CTL2    -0.180000       12.0110           0
      6601 MEMB     53       23SM     H16S     HAL2     0.900000E-01   1.00800           0
      6602 MEMB     53       23SM     H16T     HAL2     0.900000E-01   1.00800           0
      6603 MEMB     53       23SM     C17S     CTL2    -0.180000       12.0110           0
      6604 MEMB     53       23SM     H17S     HAL2     0.900000E-01   1.00800           0
      6605 MEMB     53       23SM     H17T     HAL2     0.900000E-01   1.00800           0
      6606 MEMB     53       23SM     C18S     CTL3    -0.270000       12.0110           0
      6607 MEMB     53       23SM     H18S     HAL3     0.900000E-01   1.00800           0
      6608 MEMB     53       23SM     H18T     HAL3     0.900000E-01   1.00800           0
      6609 MEMB     53       23SM     H18U     HAL3     0.900000E-01   1.00800           0
      6610 MEMB     53       23SM     C1F      C        0.550000       12.0110           0
      6611 MEMB     53       23SM     OF       O       -0.600000       15.9994           0
      6612 MEMB     53       23SM     C2F      CTL2    -0.700000E-01   12.0110           0
      6613 MEMB     53       23SM     H2F      HAL2     0.600000E-01   1.00800           0
      6614 MEMB     53       23SM     H2G      HAL2     0.600000E-01   1.00800           0
      6615 MEMB     53       23SM     C3F      CTL2    -0.180000       12.0110           0
      6616 MEMB     53       23SM     H3F      HAL2     0.900000E-01   1.00800           0
      6617 MEMB     53       23SM     H3G      HAL2     0.900000E-01   1.00800           0
      6618 MEMB     53       23SM     C4F      CTL2    -0.180000       12.0110           0
      6619 MEMB     53       23SM     H4F      HAL2     0.900000E-01   1.00800           0
      6620 MEMB     53       23SM     H4G      HAL2     0.900000E-01   1.00800           0
      6621 MEMB     53       23SM     C5F      CTL2    -0.180000       12.0110           0
      6622 MEMB     53       23SM     H5F      HAL2     0.900000E-01   1.00800           0
      6623 MEMB     53       23SM     H5G      HAL2     0.900000E-01   1.00800           0
      6624 MEMB     53       23SM     C6F      CTL2    -0.180000       12.0110           0
      6625 MEMB     53       23SM     H6F      HAL2     0.900000E-01   1.00800           0
      6626 MEMB     53       23SM     H6G      HAL2     0.900000E-01   1.00800           0
      6627 MEMB     53       23SM     C7F      CTL2    -0.180000       12.0110           0
      6628 MEMB     53       23SM     H7F      HAL2     0.900000E-01   1.00800           0
      6629 MEMB     53       23SM     H7G      HAL2     0.900000E-01   1.00800           0
      6630 MEMB     53       23SM     C8F      CTL2    -0.180000       12.0110           0
      6631 MEMB     53       23SM     H8F      HAL2     0.900000E-01   1.00800           0
      6632 MEMB     53       23SM     H8G      HAL2     0.900000E-01   1.00800           0
      6633 MEMB     53       23SM     C9F      CTL2    -0.180000       12.0110           0
      6634 MEMB     53       23SM     H9F      HAL2     0.900000E-01   1.00800           0
      6635 MEMB     53       23SM     H9G      HAL2     0.900000E-01   1.00800           0
      6636 MEMB     53       23SM     C10F     CTL2    -0.180000       12.0110           0
      6637 MEMB     53       23SM     H10F     HAL2     0.900000E-01   1.00800           0
      6638 MEMB     53       23SM     H10G     HAL2     0.900000E-01   1.00800           0
      6639 MEMB     53       23SM     C11F     CTL2    -0.180000       12.0110           0
      6640 MEMB     53       23SM     H11F     HAL2     0.900000E-01   1.00800           0
      6641 MEMB     53       23SM     H11G     HAL2     0.900000E-01   1.00800           0
      6642 MEMB     53       23SM     C12F     CTL2    -0.180000       12.0110           0
      6643 MEMB     53       23SM     H12F     HAL2     0.900000E-01   1.00800           0
      6644 MEMB     53       23SM     H12G     HAL2     0.900000E-01   1.00800           0
      6645 MEMB     53       23SM     C13F     CTL2    -0.180000       12.0110           0
      6646 MEMB     53       23SM     H13F     HAL2     0.900000E-01   1.00800           0
      6647 MEMB     53       23SM     H13G     HAL2     0.900000E-01   1.00800           0
      6648 MEMB     53       23SM     C14F     CTL2    -0.180000       12.0110           0
      6649 MEMB     53       23SM     H14F     HAL2     0.900000E-01   1.00800           0
      6650 MEMB     53       23SM     H14G     HAL2     0.900000E-01   1.00800           0
      6651 MEMB     53       23SM     C15F     CTL2    -0.180000       12.0110           0
      6652 MEMB     53       23SM     H15F     HAL2     0.900000E-01   1.00800           0
      6653 MEMB     53       23SM     H15G     HAL2     0.900000E-01   1.00800           0
      6654 MEMB     53       23SM     C16F     CTL2    -0.180000       12.0110           0
      6655 MEMB     53       23SM     H16F     HAL2     0.900000E-01   1.00800           0
      6656 MEMB     53       23SM     H16G     HAL2     0.900000E-01   1.00800           0
      6657 MEMB     53       23SM     C17F     CTL2    -0.180000       12.0110           0
      6658 MEMB     53       23SM     H17F     HAL2     0.900000E-01   1.00800           0
      6659 MEMB     53       23SM     H17G     HAL2     0.900000E-01   1.00800           0
      6660 MEMB     53       23SM     C18F     CTL2    -0.180000       12.0110           0
      6661 MEMB     53       23SM     H18F     HAL2     0.900000E-01   1.00800           0
      6662 MEMB     53       23SM     H18G     HAL2     0.900000E-01   1.00800           0
      6663 MEMB     53       23SM     C19F     CTL2    -0.180000       12.0110           0
      6664 MEMB     53       23SM     H19F     HAL2     0.900000E-01   1.00800           0
      6665 MEMB     53       23SM     H19G     HAL2     0.900000E-01   1.00800           0
      6666 MEMB     53       23SM     C20F     CTL2    -0.180000       12.0110           0
      6667 MEMB     53       23SM     H20F     HAL2     0.900000E-01   1.00800           0
      6668 MEMB     53       23SM     H20G     HAL2     0.900000E-01   1.00800           0
      6669 MEMB     53       23SM     C21F     CTL2    -0.180000       12.0110           0
      6670 MEMB     53       23SM     H21F     HAL2     0.900000E-01   1.00800           0
      6671 MEMB     53       23SM     H21G     HAL2     0.900000E-01   1.00800           0
      6672 MEMB     53       23SM     C22F     CTL2    -0.180000       12.0110           0
      6673 MEMB     53       23SM     H22F     HAL2     0.900000E-01   1.00800           0
      6674 MEMB     53       23SM     H22G     HAL2     0.900000E-01   1.00800           0
      6675 MEMB     53       23SM     C23F     CTL3    -0.270000       12.0110           0
      6676 MEMB     53       23SM     H23F     HAL3     0.900000E-01   1.00800           0
      6677 MEMB     53       23SM     H23G     HAL3     0.900000E-01   1.00800           0
      6678 MEMB     53       23SM     H23H     HAL3     0.900000E-01   1.00800           0
      6679 MEMB     54       DOPC     N        NTL     -0.600000       14.0070           0
      6680 MEMB     54       DOPC     C12      CTL2    -0.100000       12.0110           0
      6681 MEMB     54       DOPC     H12A     HL       0.250000       1.00800           0
      6682 MEMB     54       DOPC     H12B     HL       0.250000       1.00800           0
      6683 MEMB     54       DOPC     C13      CTL5    -0.350000       12.0110           0
      6684 MEMB     54       DOPC     H13A     HL       0.250000       1.00800           0
      6685 MEMB     54       DOPC     H13B     HL       0.250000       1.00800           0
      6686 MEMB     54       DOPC     H13C     HL       0.250000       1.00800           0
      6687 MEMB     54       DOPC     C14      CTL5    -0.350000       12.0110           0
      6688 MEMB     54       DOPC     H14A     HL       0.250000       1.00800           0
      6689 MEMB     54       DOPC     H14B     HL       0.250000       1.00800           0
      6690 MEMB     54       DOPC     H14C     HL       0.250000       1.00800           0
      6691 MEMB     54       DOPC     C15      CTL5    -0.350000       12.0110           0
      6692 MEMB     54       DOPC     H15A     HL       0.250000       1.00800           0
      6693 MEMB     54       DOPC     H15B     HL       0.250000       1.00800           0
      6694 MEMB     54       DOPC     H15C     HL       0.250000       1.00800           0
      6695 MEMB     54       DOPC     C11      CTL2    -0.800000E-01   12.0110           0
      6696 MEMB     54       DOPC     H11A     HAL2     0.900000E-01   1.00800           0
      6697 MEMB     54       DOPC     H11B     HAL2     0.900000E-01   1.00800           0
      6698 MEMB     54       DOPC     P        PL        1.50000       30.9740           0
      6699 MEMB     54       DOPC     O13      O2L     -0.780000       15.9994           0
      6700 MEMB     54       DOPC     O14      O2L     -0.780000       15.9994           0
      6701 MEMB     54       DOPC     O12      OSLP    -0.570000       15.9994           0
      6702 MEMB     54       DOPC     O11      OSLP    -0.570000       15.9994           0
      6703 MEMB     54       DOPC     C1       CTL2    -0.800000E-01   12.0110           0
      6704 MEMB     54       DOPC     HA       HAL2     0.900000E-01   1.00800           0
      6705 MEMB     54       DOPC     HB       HAL2     0.900000E-01   1.00800           0
      6706 MEMB     54       DOPC     C2       CTL1     0.170000       12.0110           0
      6707 MEMB     54       DOPC     HS       HAL1     0.900000E-01   1.00800           0
      6708 MEMB     54       DOPC     O21      OSL     -0.490000       15.9994           0
      6709 MEMB     54       DOPC     C21      CL       0.900000       12.0110           0
      6710 MEMB     54       DOPC     O22      OBL     -0.630000       15.9994           0
      6711 MEMB     54       DOPC     C22      CTL2    -0.220000       12.0110           0
      6712 MEMB     54       DOPC     H2R      HAL2     0.900000E-01   1.00800           0
      6713 MEMB     54       DOPC     H2S      HAL2     0.900000E-01   1.00800           0
      6714 MEMB     54       DOPC     C3       CTL2     0.800000E-01   12.0110           0
      6715 MEMB     54       DOPC     HX       HAL2     0.900000E-01   1.00800           0
      6716 MEMB     54       DOPC     HY       HAL2     0.900000E-01   1.00800           0
      6717 MEMB     54       DOPC     O31      OSL     -0.490000       15.9994           0
      6718 MEMB     54       DOPC     C31      CL       0.900000       12.0110           0
      6719 MEMB     54       DOPC     O32      OBL     -0.630000       15.9994           0
      6720 MEMB     54       DOPC     C32      CTL2    -0.220000       12.0110           0
      6721 MEMB     54       DOPC     H2X      HAL2     0.900000E-01   1.00800           0
      6722 MEMB     54       DOPC     H2Y      HAL2     0.900000E-01   1.00800           0
      6723 MEMB     54       DOPC     C23      CTL2    -0.180000       12.0110           0
      6724 MEMB     54       DOPC     H3R      HAL2     0.900000E-01   1.00800           0
      6725 MEMB     54       DOPC     H3S      HAL2     0.900000E-01   1.00800           0
      6726 MEMB     54       DOPC     C24      CTL2    -0.180000       12.0110           0
      6727 MEMB     54       DOPC     H4R      HAL2     0.900000E-01   1.00800           0
      6728 MEMB     54       DOPC     H4S      HAL2     0.900000E-01   1.00800           0
      6729 MEMB     54       DOPC     C25      CTL2    -0.180000       12.0110           0
      6730 MEMB     54       DOPC     H5R      HAL2     0.900000E-01   1.00800           0
      6731 MEMB     54       DOPC     H5S      HAL2     0.900000E-01   1.00800           0
      6732 MEMB     54       DOPC     C26      CTL2    -0.180000       12.0110           0
      6733 MEMB     54       DOPC     H6R      HAL2     0.900000E-01   1.00800           0
      6734 MEMB     54       DOPC     H6S      HAL2     0.900000E-01   1.00800           0
      6735 MEMB     54       DOPC     C27      CTL2    -0.180000       12.0110           0
      6736 MEMB     54       DOPC     H7R      HAL2     0.900000E-01   1.00800           0
      6737 MEMB     54       DOPC     H7S      HAL2     0.900000E-01   1.00800           0
      6738 MEMB     54       DOPC     C28      CTL2    -0.180000       12.0110           0
      6739 MEMB     54       DOPC     H8R      HAL2     0.900000E-01   1.00800           0
      6740 MEMB     54       DOPC     H8S      HAL2     0.900000E-01   1.00800           0
      6741 MEMB     54       DOPC     C29      CEL1    -0.150000       12.0110           0
      6742 MEMB     54       DOPC     H9R      HEL1     0.150000       1.00800           0
      6743 MEMB     54       DOPC     C210     CEL1    -0.150000       12.0110           0
      6744 MEMB     54       DOPC     H10R     HEL1     0.150000       1.00800           0
      6745 MEMB     54       DOPC     C211     CTL2    -0.180000       12.0110           0
      6746 MEMB     54       DOPC     H11R     HAL2     0.900000E-01   1.00800           0
      6747 MEMB     54       DOPC     H11S     HAL2     0.900000E-01   1.00800           0
      6748 MEMB     54       DOPC     C212     CTL2    -0.180000       12.0110           0
      6749 MEMB     54       DOPC     H12R     HAL2     0.900000E-01   1.00800           0
      6750 MEMB     54       DOPC     H12S     HAL2     0.900000E-01   1.00800           0
      6751 MEMB     54       DOPC     C213     CTL2    -0.180000       12.0110           0
      6752 MEMB     54       DOPC     H13R     HAL2     0.900000E-01   1.00800           0
      6753 MEMB     54       DOPC     H13S     HAL2     0.900000E-01   1.00800           0
      6754 MEMB     54       DOPC     C214     CTL2    -0.180000       12.0110           0
      6755 MEMB     54       DOPC     H14R     HAL2     0.900000E-01   1.00800           0
      6756 MEMB     54       DOPC     H14S     HAL2     0.900000E-01   1.00800           0
      6757 MEMB     54       DOPC     C215     CTL2    -0.180000       12.0110           0
      6758 MEMB     54       DOPC     H15R     HAL2     0.900000E-01   1.00800           0
      6759 MEMB     54       DOPC     H15S     HAL2     0.900000E-01   1.00800           0
      6760 MEMB     54       DOPC     C216     CTL2    -0.180000       12.0110           0
      6761 MEMB     54       DOPC     H16R     HAL2     0.900000E-01   1.00800           0
      6762 MEMB     54       DOPC     H16S     HAL2     0.900000E-01   1.00800           0
      6763 MEMB     54       DOPC     C217     CTL2    -0.180000       12.0110           0
      6764 MEMB     54       DOPC     H17R     HAL2     0.900000E-01   1.00800           0
      6765 MEMB     54       DOPC     H17S     HAL2     0.900000E-01   1.00800           0
      6766 MEMB     54       DOPC     C218     CTL3    -0.270000       12.0110           0
      6767 MEMB     54       DOPC     H18R     HAL3     0.900000E-01   1.00800           0
      6768 MEMB     54       DOPC     H18S     HAL3     0.900000E-01   1.00800           0
      6769 MEMB     54       DOPC     H18T     HAL3     0.900000E-01   1.00800           0
      6770 MEMB     54       DOPC     C33      CTL2    -0.180000       12.0110           0
      6771 MEMB     54       DOPC     H3X      HAL2     0.900000E-01   1.00800           0
      6772 MEMB     54       DOPC     H3Y      HAL2     0.900000E-01   1.00800           0
      6773 MEMB     54       DOPC     C34      CTL2    -0.180000       12.0110           0
      6774 MEMB     54       DOPC     H4X      HAL2     0.900000E-01   1.00800           0
      6775 MEMB     54       DOPC     H4Y      HAL2     0.900000E-01   1.00800           0
      6776 MEMB     54       DOPC     C35      CTL2    -0.180000       12.0110           0
      6777 MEMB     54       DOPC     H5X      HAL2     0.900000E-01   1.00800           0
      6778 MEMB     54       DOPC     H5Y      HAL2     0.900000E-01   1.00800           0
      6779 MEMB     54       DOPC     C36      CTL2    -0.180000       12.0110           0
      6780 MEMB     54       DOPC     H6X      HAL2     0.900000E-01   1.00800           0
      6781 MEMB     54       DOPC     H6Y      HAL2     0.900000E-01   1.00800           0
      6782 MEMB     54       DOPC     C37      CTL2    -0.180000       12.0110           0
      6783 MEMB     54       DOPC     H7X      HAL2     0.900000E-01   1.00800           0
      6784 MEMB     54       DOPC     H7Y      HAL2     0.900000E-01   1.00800           0
      6785 MEMB     54       DOPC     C38      CTL2    -0.180000       12.0110           0
      6786 MEMB     54       DOPC     H8X      HAL2     0.900000E-01   1.00800           0
      6787 MEMB     54       DOPC     H8Y      HAL2     0.900000E-01   1.00800           0
      6788 MEMB     54       DOPC     C39      CEL1    -0.150000       12.0110           0
      6789 MEMB     54       DOPC     H9X      HEL1     0.150000       1.00800           0
      6790 MEMB     54       DOPC     C310     CEL1    -0.150000       12.0110           0
      6791 MEMB     54       DOPC     H10X     HEL1     0.150000       1.00800           0
      6792 MEMB     54       DOPC     C311     CTL2    -0.180000       12.0110           0
      6793 MEMB     54       DOPC     H11X     HAL2     0.900000E-01   1.00800           0
      6794 MEMB     54       DOPC     H11Y     HAL2     0.900000E-01   1.00800           0
      6795 MEMB     54       DOPC     C312     CTL2    -0.180000       12.0110           0
      6796 MEMB     54       DOPC     H12X     HAL2     0.900000E-01   1.00800           0
      6797 MEMB     54       DOPC     H12Y     HAL2     0.900000E-01   1.00800           0
      6798 MEMB     54       DOPC     C313     CTL2    -0.180000       12.0110           0
      6799 MEMB     54       DOPC     H13X     HAL2     0.900000E-01   1.00800           0
      6800 MEMB     54       DOPC     H13Y     HAL2     0.900000E-01   1.00800           0
      6801 MEMB     54       DOPC     C314     CTL2    -0.180000       12.0110           0
      6802 MEMB     54       DOPC     H14X     HAL2     0.900000E-01   1.00800           0
      6803 MEMB     54       DOPC     H14Y     HAL2     0.900000E-01   1.00800           0
      6804 MEMB     54       DOPC     C315     CTL2    -0.180000       12.0110           0
      6805 MEMB     54       DOPC     H15X     HAL2     0.900000E-01   1.00800           0
      6806 MEMB     54       DOPC     H15Y     HAL2     0.900000E-01   1.00800           0
      6807 MEMB     54       DOPC     C316     CTL2    -0.180000       12.0110           0
      6808 MEMB     54       DOPC     H16X     HAL2     0.900000E-01   1.00800           0
      6809 MEMB     54       DOPC     H16Y     HAL2     0.900000E-01   1.00800           0
      6810 MEMB     54       DOPC     C317     CTL2    -0.180000       12.0110           0
      6811 MEMB     54       DOPC     H17X     HAL2     0.900000E-01   1.00800           0
      6812 MEMB     54       DOPC     H17Y     HAL2     0.900000E-01   1.00800           0
      6813 MEMB     54       DOPC     C318     CTL3    -0.270000       12.0110           0
      6814 MEMB     54       DOPC     H18X     HAL3     0.900000E-01   1.00800           0
      6815 MEMB     54       DOPC     H18Y     HAL3     0.900000E-01   1.00800           0
      6816 MEMB     54       DOPC     H18Z     HAL3     0.900000E-01   1.00800           0
      6817 MEMB     55       CHL1     C3       CRL1     0.140000       12.0110           0
      6818 MEMB     55       CHL1     H3       HGA1     0.900000E-01   1.00800           0
      6819 MEMB     55       CHL1     O3       OHL     -0.660000       15.9994           0
      6820 MEMB     55       CHL1     H3'      HOL      0.430000       1.00800           0
      6821 MEMB     55       CHL1     C4       CRL2    -0.180000       12.0110           0
      6822 MEMB     55       CHL1     H4A      HGA2     0.900000E-01   1.00800           0
      6823 MEMB     55       CHL1     H4B      HGA2     0.900000E-01   1.00800           0
      6824 MEMB     55       CHL1     C5       CEL1      0.00000       12.0110           0
      6825 MEMB     55       CHL1     C6       CEL1    -0.150000       12.0110           0
      6826 MEMB     55       CHL1     H6       HEL1     0.150000       1.00800           0
      6827 MEMB     55       CHL1     C7       CRL2    -0.180000       12.0110           0
      6828 MEMB     55       CHL1     H7A      HGA2     0.900000E-01   1.00800           0
      6829 MEMB     55       CHL1     H7B      HGA2     0.900000E-01   1.00800           0
      6830 MEMB     55       CHL1     C8       CRL1    -0.900000E-01   12.0110           0
      6831 MEMB     55       CHL1     H8       HGA1     0.900000E-01   1.00800           0
      6832 MEMB     55       CHL1     C14      CRL1    -0.900000E-01   12.0110           0
      6833 MEMB     55       CHL1     H14      HGA1     0.900000E-01   1.00800           0
      6834 MEMB     55       CHL1     C15      CRL2    -0.180000       12.0110           0
      6835 MEMB     55       CHL1     H15A     HGA2     0.900000E-01   1.00800           0
      6836 MEMB     55       CHL1     H15B     HGA2     0.900000E-01   1.00800           0
      6837 MEMB     55       CHL1     C16      CRL2    -0.180000       12.0110           0
      6838 MEMB     55       CHL1     H16A     HGA2     0.900000E-01   1.00800           0
      6839 MEMB     55       CHL1     H16B     HGA2     0.900000E-01   1.00800           0
      6840 MEMB     55       CHL1     C17      CRL1    -0.900000E-01   12.0110           0
      6841 MEMB     55       CHL1     H17      HGA1     0.900000E-01   1.00800           0
      6842 MEMB     55       CHL1     C13      CRL1      0.00000       12.0110           0
      6843 MEMB     55       CHL1     C18      CTL3    -0.270000       12.0110           0
      6844 MEMB     55       CHL1     H18A     HAL3     0.900000E-01   1.00800           0
      6845 MEMB     55       CHL1     H18B     HAL3     0.900000E-01   1.00800           0
      6846 MEMB     55       CHL1     H18C     HAL3     0.900000E-01   1.00800           0
      6847 MEMB     55       CHL1     C12      CRL2    -0.180000       12.0110           0
      6848 MEMB     55       CHL1     H12A     HGA2     0.900000E-01   1.00800           0
      6849 MEMB     55       CHL1     H12B     HGA2     0.900000E-01   1.00800           0
      6850 MEMB     55       CHL1     C11      CRL2    -0.180000       12.0110           0
      6851 MEMB     55       CHL1     H11A     HGA2     0.900000E-01   1.00800           0
      6852 MEMB     55       CHL1     H11B     HGA2     0.900000E-01   1.00800           0
      6853 MEMB     55       CHL1     C9       CRL1    -0.900000E-01   12.0110           0
      6854 MEMB     55       CHL1     H9       HGA1     0.900000E-01   1.00800           0
      6855 MEMB     55       CHL1     C10      CRL1      0.00000       12.0110           0
      6856 MEMB     55       CHL1     C19      CTL3    -0.270000       12.0110           0
      6857 MEMB     55       CHL1     H19A     HAL3     0.900000E-01   1.00800           0
      6858 MEMB     55       CHL1     H19B     HAL3     0.900000E-01   1.00800           0
      6859 MEMB     55       CHL1     H19C     HAL3     0.900000E-01   1.00800           0
      6860 MEMB     55       CHL1     C1       CRL2    -0.180000       12.0110           0
      6861 MEMB     55       CHL1     H1A      HGA2     0.900000E-01   1.00800           0
      6862 MEMB     55       CHL1     H1B      HGA2     0.900000E-01   1.00800           0
      6863 MEMB     55       CHL1     C2       CRL2    -0.180000       12.0110           0
      6864 MEMB     55       CHL1     H2A      HGA2     0.900000E-01   1.00800           0
      6865 MEMB     55       CHL1     H2B      HGA2     0.900000E-01   1.00800           0
      6866 MEMB     55       CHL1     C20      CTL1    -0.900000E-01   12.0110           0
      6867 MEMB     55       CHL1     H20      HAL1     0.900000E-01   1.00800           0
      6868 MEMB     55       CHL1     C21      CTL3    -0.270000       12.0110           0
      6869 MEMB     55       CHL1     H21A     HAL3     0.900000E-01   1.00800           0
      6870 MEMB     55       CHL1     H21B     HAL3     0.900000E-01   1.00800           0
      6871 MEMB     55       CHL1     H21C     HAL3     0.900000E-01   1.00800           0
      6872 MEMB     55       CHL1     C22      CTL2    -0.180000       12.0110           0
      6873 MEMB     55       CHL1     H22A     HAL2     0.900000E-01   1.00800           0
      6874 MEMB     55       CHL1     H22B     HAL2     0.900000E-01   1.00800           0
      6875 MEMB     55       CHL1     C23      CTL2    -0.180000       12.0110           0
      6876 MEMB     55       CHL1     H23A     HAL2     0.900000E-01   1.00800           0
      6877 MEMB     55       CHL1     H23B     HAL2     0.900000E-01   1.00800           0
      6878 MEMB     55       CHL1     C24      CTL2    -0.180000       12.0110           0
      6879 MEMB     55       CHL1     H24A     HAL2     0.900000E-01   1.00800           0
      6880 MEMB     55       CHL1     H24B     HAL2     0.900000E-01   1.00800           0
      6881 MEMB     55       CHL1     C25      CTL1    -0.900000E-01   12.0110           0
      6882 MEMB     55       CHL1     H25      HAL1     0.900000E-01   1.00800           0
      6883 MEMB     55       CHL1     C26      CTL3    -0.270000       12.0110           0
      6884 MEMB     55       CHL1     H26A     HAL3     0.900000E-01   1.00800           0
      6885 MEMB     55       CHL1     H26B     HAL3     0.900000E-01   1.00800           0
      6886 MEMB     55       CHL1     H26C     HAL3     0.900000E-01   1.00800           0
      6887 MEMB     55       CHL1     C27      CTL3    -0.270000       12.0110           0
      6888 MEMB     55       CHL1     H27A     HAL3     0.900000E-01   1.00800           0
      6889 MEMB     55       CHL1     H27B     HAL3     0.900000E-01   1.00800           0
      6890 MEMB     55       CHL1     H27C     HAL3     0.900000E-01   1.00800           0
      6891 MEMB     56       DOPE     N        NH3L    -0.300000       14.0070           0
      6892 MEMB     56       DOPE     HN1      HCL      0.330000       1.00800           0
      6893 MEMB     56       DOPE     HN2      HCL      0.330000       1.00800           0
      6894 MEMB     56       DOPE     HN3      HCL      0.330000       1.00800           0
      6895 MEMB     56       DOPE     C12      CTL2     0.130000       12.0110           0
      6896 MEMB     56       DOPE     H12A     HAL2     0.900000E-01   1.00800           0
      6897 MEMB     56       DOPE     H12B     HAL2     0.900000E-01   1.00800           0
      6898 MEMB     56       DOPE     C11      CTL2    -0.800000E-01   12.0110           0
      6899 MEMB     56       DOPE     H11A     HAL2     0.900000E-01   1.00800           0
      6900 MEMB     56       DOPE     H11B     HAL2     0.900000E-01   1.00800           0
      6901 MEMB     56       DOPE     P        PL        1.50000       30.9740           0
      6902 MEMB     56       DOPE     O13      O2L     -0.780000       15.9994           0
      6903 MEMB     56       DOPE     O14      O2L     -0.780000       15.9994           0
      6904 MEMB     56       DOPE     O11      OSLP    -0.570000       15.9994           0
      6905 MEMB     56       DOPE     O12      OSLP    -0.570000       15.9994           0
      6906 MEMB     56       DOPE     C1       CTL2    -0.800000E-01   12.0110           0
      6907 MEMB     56       DOPE     HA       HAL2     0.900000E-01   1.00800           0
      6908 MEMB     56       DOPE     HB       HAL2     0.900000E-01   1.00800           0
      6909 MEMB     56       DOPE     C2       CTL1     0.170000       12.0110           0
      6910 MEMB     56       DOPE     HS       HAL1     0.900000E-01   1.00800           0
      6911 MEMB     56       DOPE     O21      OSL     -0.490000       15.9994           0
      6912 MEMB     56       DOPE     C21      CL       0.900000       12.0110           0
      6913 MEMB     56       DOPE     O22      OBL     -0.630000       15.9994           0
      6914 MEMB     56       DOPE     C22      CTL2    -0.220000       12.0110           0
      6915 MEMB     56       DOPE     H2R      HAL2     0.900000E-01   1.00800           0
      6916 MEMB     56       DOPE     H2S      HAL2     0.900000E-01   1.00800           0
      6917 MEMB     56       DOPE     C3       CTL2     0.800000E-01   12.0110           0
      6918 MEMB     56       DOPE     HX       HAL2     0.900000E-01   1.00800           0
      6919 MEMB     56       DOPE     HY       HAL2     0.900000E-01   1.00800           0
      6920 MEMB     56       DOPE     O31      OSL     -0.490000       15.9994           0
      6921 MEMB     56       DOPE     C31      CL       0.900000       12.0110           0
      6922 MEMB     56       DOPE     O32      OBL     -0.630000       15.9994           0
      6923 MEMB     56       DOPE     C32      CTL2    -0.220000       12.0110           0
      6924 MEMB     56       DOPE     H2X      HAL2     0.900000E-01   1.00800           0
      6925 MEMB     56       DOPE     H2Y      HAL2     0.900000E-01   1.00800           0
      6926 MEMB     56       DOPE     C23      CTL2    -0.180000       12.0110           0
      6927 MEMB     56       DOPE     H3R      HAL2     0.900000E-01   1.00800           0
      6928 MEMB     56       DOPE     H3S      HAL2     0.900000E-01   1.00800           0
      6929 MEMB     56       DOPE     C24      CTL2    -0.180000       12.0110           0
      6930 MEMB     56       DOPE     H4R      HAL2     0.900000E-01   1.00800           0
      6931 MEMB     56       DOPE     H4S      HAL2     0.900000E-01   1.00800           0
      6932 MEMB     56       DOPE     C25      CTL2    -0.180000       12.0110           0
      6933 MEMB     56       DOPE     H5R      HAL2     0.900000E-01   1.00800           0
      6934 MEMB     56       DOPE     H5S      HAL2     0.900000E-01   1.00800           0
      6935 MEMB     56       DOPE     C26      CTL2    -0.180000       12.0110           0
      6936 MEMB     56       DOPE     H6R      HAL2     0.900000E-01   1.00800           0
      6937 MEMB     56       DOPE     H6S      HAL2     0.900000E-01   1.00800           0
      6938 MEMB     56       DOPE     C27      CTL2    -0.180000       12.0110           0
      6939 MEMB     56       DOPE     H7R      HAL2     0.900000E-01   1.00800           0
      6940 MEMB     56       DOPE     H7S      HAL2     0.900000E-01   1.00800           0
      6941 MEMB     56       DOPE     C28      CTL2    -0.180000       12.0110           0
      6942 MEMB     56       DOPE     H8R      HAL2     0.900000E-01   1.00800           0
      6943 MEMB     56       DOPE     H8S      HAL2     0.900000E-01   1.00800           0
      6944 MEMB     56       DOPE     C29      CEL1    -0.150000       12.0110           0
      6945 MEMB     56       DOPE     H9R      HEL1     0.150000       1.00800           0
      6946 MEMB     56       DOPE     C210     CEL1    -0.150000       12.0110           0
      6947 MEMB     56       DOPE     H10R     HEL1     0.150000       1.00800           0
      6948 MEMB     56       DOPE     C211     CTL2    -0.180000       12.0110           0
      6949 MEMB     56       DOPE     H11R     HAL2     0.900000E-01   1.00800           0
      6950 MEMB     56       DOPE     H11S     HAL2     0.900000E-01   1.00800           0
      6951 MEMB     56       DOPE     C212     CTL2    -0.180000       12.0110           0
      6952 MEMB     56       DOPE     H12R     HAL2     0.900000E-01   1.00800           0
      6953 MEMB     56       DOPE     H12S     HAL2     0.900000E-01   1.00800           0
      6954 MEMB     56       DOPE     C213     CTL2    -0.180000       12.0110           0
      6955 MEMB     56       DOPE     H13R     HAL2     0.900000E-01   1.00800           0
      6956 MEMB     56       DOPE     H13S     HAL2     0.900000E-01   1.00800           0
      6957 MEMB     56       DOPE     C214     CTL2    -0.180000       12.0110           0
      6958 MEMB     56       DOPE     H14R     HAL2     0.900000E-01   1.00800           0
      6959 MEMB     56       DOPE     H14S     HAL2     0.900000E-01   1.00800           0
      6960 MEMB     56       DOPE     C215     CTL2    -0.180000       12.0110           0
      6961 MEMB     56       DOPE     H15R     HAL2     0.900000E-01   1.00800           0
      6962 MEMB     56       DOPE     H15S     HAL2     0.900000E-01   1.00800           0
      6963 MEMB     56       DOPE     C216     CTL2    -0.180000       12.0110           0
      6964 MEMB     56       DOPE     H16R     HAL2     0.900000E-01   1.00800           0
      6965 MEMB     56       DOPE     H16S     HAL2     0.900000E-01   1.00800           0
      6966 MEMB     56       DOPE     C217     CTL2    -0.180000       12.0110           0
      6967 MEMB     56       DOPE     H17R     HAL2     0.900000E-01   1.00800           0
      6968 MEMB     56       DOPE     H17S     HAL2     0.900000E-01   1.00800           0
      6969 MEMB     56       DOPE     C218     CTL3    -0.270000       12.0110           0
      6970 MEMB     56       DOPE     H18R     HAL3     0.900000E-01   1.00800           0
      6971 MEMB     56       DOPE     H18S     HAL3     0.900000E-01   1.00800           0
      6972 MEMB     56       DOPE     H18T     HAL3     0.900000E-01   1.00800           0
      6973 MEMB     56       DOPE     C33      CTL2    -0.180000       12.0110           0
      6974 MEMB     56       DOPE     H3X      HAL2     0.900000E-01   1.00800           0
      6975 MEMB     56       DOPE     H3Y      HAL2     0.900000E-01   1.00800           0
      6976 MEMB     56       DOPE     C34      CTL2    -0.180000       12.0110           0
      6977 MEMB     56       DOPE     H4X      HAL2     0.900000E-01   1.00800           0
      6978 MEMB     56       DOPE     H4Y      HAL2     0.900000E-01   1.00800           0
      6979 MEMB     56       DOPE     C35      CTL2    -0.180000       12.0110           0
      6980 MEMB     56       DOPE     H5X      HAL2     0.900000E-01   1.00800           0
      6981 MEMB     56       DOPE     H5Y      HAL2     0.900000E-01   1.00800           0
      6982 MEMB     56       DOPE     C36      CTL2    -0.180000       12.0110           0
      6983 MEMB     56       DOPE     H6X      HAL2     0.900000E-01   1.00800           0
      6984 MEMB     56       DOPE     H6Y      HAL2     0.900000E-01   1.00800           0
      6985 MEMB     56       DOPE     C37      CTL2    -0.180000       12.0110           0
      6986 MEMB     56       DOPE     H7X      HAL2     0.900000E-01   1.00800           0
      6987 MEMB     56       DOPE     H7Y      HAL2     0.900000E-01   1.00800           0
      6988 MEMB     56       DOPE     C38      CTL2    -0.180000       12.0110           0
      6989 MEMB     56       DOPE     H8X      HAL2     0.900000E-01   1.00800           0
      6990 MEMB     56       DOPE     H8Y      HAL2     0.900000E-01   1.00800           0
      6991 MEMB     56       DOPE     C39      CEL1    -0.150000       12.0110           0
      6992 MEMB     56       DOPE     H9X      HEL1     0.150000       1.00800           0
      6993 MEMB     56       DOPE     C310     CEL1    -0.150000       12.0110           0
      6994 MEMB     56       DOPE     H10X     HEL1     0.150000       1.00800           0
      6995 MEMB     56       DOPE     C311     CTL2    -0.180000       12.0110           0
      6996 MEMB     56       DOPE     H11X     HAL2     0.900000E-01   1.00800           0
      6997 MEMB     56       DOPE     H11Y     HAL2     0.900000E-01   1.00800           0
      6998 MEMB     56       DOPE     C312     CTL2    -0.180000       12.0110           0
      6999 MEMB     56       DOPE     H12X     HAL2     0.900000E-01   1.00800           0
      7000 MEMB     56       DOPE     H12Y     HAL2     0.900000E-01   1.00800           0
      7001 MEMB     56       DOPE     C313     CTL2    -0.180000       12.0110           0
      7002 MEMB     56       DOPE     H13X     HAL2     0.900000E-01   1.00800           0
      7003 MEMB     56       DOPE     H13Y     HAL2     0.900000E-01   1.00800           0
      7004 MEMB     56       DOPE     C314     CTL2    -0.180000       12.0110           0
      7005 MEMB     56       DOPE     H14X     HAL2     0.900000E-01   1.00800           0
      7006 MEMB     56       DOPE     H14Y     HAL2     0.900000E-01   1.00800           0
      7007 MEMB     56       DOPE     C315     CTL2    -0.180000       12.0110           0
      7008 MEMB     56       DOPE     H15X     HAL2     0.900000E-01   1.00800           0
      7009 MEMB     56       DOPE     H15Y     HAL2     0.900000E-01   1.00800           0
      7010 MEMB     56       DOPE     C316     CTL2    -0.180000       12.0110           0
      7011 MEMB     56       DOPE     H16X     HAL2     0.900000E-01   1.00800           0
      7012 MEMB     56       DOPE     H16Y     HAL2     0.900000E-01   1.00800           0
      7013 MEMB     56       DOPE     C317     CTL2    -0.180000       12.0110           0
      7014 MEMB     56       DOPE     H17X     HAL2     0.900000E-01   1.00800           0
      7015 MEMB     56       DOPE     H17Y     HAL2     0.900000E-01   1.00800           0
      7016 MEMB     56       DOPE     C318     CTL3    -0.270000       12.0110           0
      7017 MEMB     56       DOPE     H18X     HAL3     0.900000E-01   1.00800           0
      7018 MEMB     56       DOPE     H18Y     HAL3     0.900000E-01   1.00800           0
      7019 MEMB     56       DOPE     H18Z     HAL3     0.900000E-01   1.00800           0
      7020 MEMB     57       CHL1     C3       CRL1     0.140000       12.0110           0
      7021 MEMB     57       CHL1     H3       HGA1     0.900000E-01   1.00800           0
      7022 MEMB     57       CHL1     O3       OHL     -0.660000       15.9994           0
      7023 MEMB     57       CHL1     H3'      HOL      0.430000       1.00800           0
      7024 MEMB     57       CHL1     C4       CRL2    -0.180000       12.0110           0
      7025 MEMB     57       CHL1     H4A      HGA2     0.900000E-01   1.00800           0
      7026 MEMB     57       CHL1     H4B      HGA2     0.900000E-01   1.00800           0
      7027 MEMB     57       CHL1     C5       CEL1      0.00000       12.0110           0
      7028 MEMB     57       CHL1     C6       CEL1    -0.150000       12.0110           0
      7029 MEMB     57       CHL1     H6       HEL1     0.150000       1.00800           0
      7030 MEMB     57       CHL1     C7       CRL2    -0.180000       12.0110           0
      7031 MEMB     57       CHL1     H7A      HGA2     0.900000E-01   1.00800           0
      7032 MEMB     57       CHL1     H7B      HGA2     0.900000E-01   1.00800           0
      7033 MEMB     57       CHL1     C8       CRL1    -0.900000E-01   12.0110           0
      7034 MEMB     57       CHL1     H8       HGA1     0.900000E-01   1.00800           0
      7035 MEMB     57       CHL1     C14      CRL1    -0.900000E-01   12.0110           0
      7036 MEMB     57       CHL1     H14      HGA1     0.900000E-01   1.00800           0
      7037 MEMB     57       CHL1     C15      CRL2    -0.180000       12.0110           0
      7038 MEMB     57       CHL1     H15A     HGA2     0.900000E-01   1.00800           0
      7039 MEMB     57       CHL1     H15B     HGA2     0.900000E-01   1.00800           0
      7040 MEMB     57       CHL1     C16      CRL2    -0.180000       12.0110           0
      7041 MEMB     57       CHL1     H16A     HGA2     0.900000E-01   1.00800           0
      7042 MEMB     57       CHL1     H16B     HGA2     0.900000E-01   1.00800           0
      7043 MEMB     57       CHL1     C17      CRL1    -0.900000E-01   12.0110           0
      7044 MEMB     57       CHL1     H17      HGA1     0.900000E-01   1.00800           0
      7045 MEMB     57       CHL1     C13      CRL1      0.00000       12.0110           0
      7046 MEMB     57       CHL1     C18      CTL3    -0.270000       12.0110           0
      7047 MEMB     57       CHL1     H18A     HAL3     0.900000E-01   1.00800           0
      7048 MEMB     57       CHL1     H18B     HAL3     0.900000E-01   1.00800           0
      7049 MEMB     57       CHL1     H18C     HAL3     0.900000E-01   1.00800           0
      7050 MEMB     57       CHL1     C12      CRL2    -0.180000       12.0110           0
      7051 MEMB     57       CHL1     H12A     HGA2     0.900000E-01   1.00800           0
      7052 MEMB     57       CHL1     H12B     HGA2     0.900000E-01   1.00800           0
      7053 MEMB     57       CHL1     C11      CRL2    -0.180000       12.0110           0
      7054 MEMB     57       CHL1     H11A     HGA2     0.900000E-01   1.00800           0
      7055 MEMB     57       CHL1     H11B     HGA2     0.900000E-01   1.00800           0
      7056 MEMB     57       CHL1     C9       CRL1    -0.900000E-01   12.0110           0
      7057 MEMB     57       CHL1     H9       HGA1     0.900000E-01   1.00800           0
      7058 MEMB     57       CHL1     C10      CRL1      0.00000       12.0110           0
      7059 MEMB     57       CHL1     C19      CTL3    -0.270000       12.0110           0
      7060 MEMB     57       CHL1     H19A     HAL3     0.900000E-01   1.00800           0
      7061 MEMB     57       CHL1     H19B     HAL3     0.900000E-01   1.00800           0
      7062 MEMB     57       CHL1     H19C     HAL3     0.900000E-01   1.00800           0
      7063 MEMB     57       CHL1     C1       CRL2    -0.180000       12.0110           0
      7064 MEMB     57       CHL1     H1A      HGA2     0.900000E-01   1.00800           0
      7065 MEMB     57       CHL1     H1B      HGA2     0.900000E-01   1.00800           0
      7066 MEMB     57       CHL1     C2       CRL2    -0.180000       12.0110           0
      7067 MEMB     57       CHL1     H2A      HGA2     0.900000E-01   1.00800           0
      7068 MEMB     57       CHL1     H2B      HGA2     0.900000E-01   1.00800           0
      7069 MEMB     57       CHL1     C20      CTL1    -0.900000E-01   12.0110           0
      7070 MEMB     57       CHL1     H20      HAL1     0.900000E-01   1.00800           0
      7071 MEMB     57       CHL1     C21      CTL3    -0.270000       12.0110           0
      7072 MEMB     57       CHL1     H21A     HAL3     0.900000E-01   1.00800           0
      7073 MEMB     57       CHL1     H21B     HAL3     0.900000E-01   1.00800           0
      7074 MEMB     57       CHL1     H21C     HAL3     0.900000E-01   1.00800           0
      7075 MEMB     57       CHL1     C22      CTL2    -0.180000       12.0110           0
      7076 MEMB     57       CHL1     H22A     HAL2     0.900000E-01   1.00800           0
      7077 MEMB     57       CHL1     H22B     HAL2     0.900000E-01   1.00800           0
      7078 MEMB     57       CHL1     C23      CTL2    -0.180000       12.0110           0
      7079 MEMB     57       CHL1     H23A     HAL2     0.900000E-01   1.00800           0
      7080 MEMB     57       CHL1     H23B     HAL2     0.900000E-01   1.00800           0
      7081 MEMB     57       CHL1     C24      CTL2    -0.180000       12.0110           0
      7082 MEMB     57       CHL1     H24A     HAL2     0.900000E-01   1.00800           0
      7083 MEMB     57       CHL1     H24B     HAL2     0.900000E-01   1.00800           0
      7084 MEMB     57       CHL1     C25      CTL1    -0.900000E-01   12.0110           0
      7085 MEMB     57       CHL1     H25      HAL1     0.900000E-01   1.00800           0
      7086 MEMB     57       CHL1     C26      CTL3    -0.270000       12.0110           0
      7087 MEMB     57       CHL1     H26A     HAL3     0.900000E-01   1.00800           0
      7088 MEMB     57       CHL1     H26B     HAL3     0.900000E-01   1.00800           0
      7089 MEMB     57       CHL1     H26C     HAL3     0.900000E-01   1.00800           0
      7090 MEMB     57       CHL1     C27      CTL3    -0.270000       12.0110           0
      7091 MEMB     57       CHL1     H27A     HAL3     0.900000E-01   1.00800           0
      7092 MEMB     57       CHL1     H27B     HAL3     0.900000E-01   1.00800           0
      7093 MEMB     57       CHL1     H27C     HAL3     0.900000E-01   1.00800           0
      7094 MEMB     58       DOPC     N        NTL     -0.600000       14.0070           0
      7095 MEMB     58       DOPC     C12      CTL2    -0.100000       12.0110           0
      7096 MEMB     58       DOPC     H12A     HL       0.250000       1.00800           0
      7097 MEMB     58       DOPC     H12B     HL       0.250000       1.00800           0
      7098 MEMB     58       DOPC     C13      CTL5    -0.350000       12.0110           0
      7099 MEMB     58       DOPC     H13A     HL       0.250000       1.00800           0
      7100 MEMB     58       DOPC     H13B     HL       0.250000       1.00800           0
      7101 MEMB     58       DOPC     H13C     HL       0.250000       1.00800           0
      7102 MEMB     58       DOPC     C14      CTL5    -0.350000       12.0110           0
      7103 MEMB     58       DOPC     H14A     HL       0.250000       1.00800           0
      7104 MEMB     58       DOPC     H14B     HL       0.250000       1.00800           0
      7105 MEMB     58       DOPC     H14C     HL       0.250000       1.00800           0
      7106 MEMB     58       DOPC     C15      CTL5    -0.350000       12.0110           0
      7107 MEMB     58       DOPC     H15A     HL       0.250000       1.00800           0
      7108 MEMB     58       DOPC     H15B     HL       0.250000       1.00800           0
      7109 MEMB     58       DOPC     H15C     HL       0.250000       1.00800           0
      7110 MEMB     58       DOPC     C11      CTL2    -0.800000E-01   12.0110           0
      7111 MEMB     58       DOPC     H11A     HAL2     0.900000E-01   1.00800           0
      7112 MEMB     58       DOPC     H11B     HAL2     0.900000E-01   1.00800           0
      7113 MEMB     58       DOPC     P        PL        1.50000       30.9740           0
      7114 MEMB     58       DOPC     O13      O2L     -0.780000       15.9994           0
      7115 MEMB     58       DOPC     O14      O2L     -0.780000       15.9994           0
      7116 MEMB     58       DOPC     O12      OSLP    -0.570000       15.9994           0
      7117 MEMB     58       DOPC     O11      OSLP    -0.570000       15.9994           0
      7118 MEMB     58       DOPC     C1       CTL2    -0.800000E-01   12.0110           0
      7119 MEMB     58       DOPC     HA       HAL2     0.900000E-01   1.00800           0
      7120 MEMB     58       DOPC     HB       HAL2     0.900000E-01   1.00800           0
      7121 MEMB     58       DOPC     C2       CTL1     0.170000       12.0110           0
      7122 MEMB     58       DOPC     HS       HAL1     0.900000E-01   1.00800           0
      7123 MEMB     58       DOPC     O21      OSL     -0.490000       15.9994           0
      7124 MEMB     58       DOPC     C21      CL       0.900000       12.0110           0
      7125 MEMB     58       DOPC     O22      OBL     -0.630000       15.9994           0
      7126 MEMB     58       DOPC     C22      CTL2    -0.220000       12.0110           0
      7127 MEMB     58       DOPC     H2R      HAL2     0.900000E-01   1.00800           0
      7128 MEMB     58       DOPC     H2S      HAL2     0.900000E-01   1.00800           0
      7129 MEMB     58       DOPC     C3       CTL2     0.800000E-01   12.0110           0
      7130 MEMB     58       DOPC     HX       HAL2     0.900000E-01   1.00800           0
      7131 MEMB     58       DOPC     HY       HAL2     0.900000E-01   1.00800           0
      7132 MEMB     58       DOPC     O31      OSL     -0.490000       15.9994           0
      7133 MEMB     58       DOPC     C31      CL       0.900000       12.0110           0
      7134 MEMB     58       DOPC     O32      OBL     -0.630000       15.9994           0
      7135 MEMB     58       DOPC     C32      CTL2    -0.220000       12.0110           0
      7136 MEMB     58       DOPC     H2X      HAL2     0.900000E-01   1.00800           0
      7137 MEMB     58       DOPC     H2Y      HAL2     0.900000E-01   1.00800           0
      7138 MEMB     58       DOPC     C23      CTL2    -0.180000       12.0110           0
      7139 MEMB     58       DOPC     H3R      HAL2     0.900000E-01   1.00800           0
      7140 MEMB     58       DOPC     H3S      HAL2     0.900000E-01   1.00800           0
      7141 MEMB     58       DOPC     C24      CTL2    -0.180000       12.0110           0
      7142 MEMB     58       DOPC     H4R      HAL2     0.900000E-01   1.00800           0
      7143 MEMB     58       DOPC     H4S      HAL2     0.900000E-01   1.00800           0
      7144 MEMB     58       DOPC     C25      CTL2    -0.180000       12.0110           0
      7145 MEMB     58       DOPC     H5R      HAL2     0.900000E-01   1.00800           0
      7146 MEMB     58       DOPC     H5S      HAL2     0.900000E-01   1.00800           0
      7147 MEMB     58       DOPC     C26      CTL2    -0.180000       12.0110           0
      7148 MEMB     58       DOPC     H6R      HAL2     0.900000E-01   1.00800           0
      7149 MEMB     58       DOPC     H6S      HAL2     0.900000E-01   1.00800           0
      7150 MEMB     58       DOPC     C27      CTL2    -0.180000       12.0110           0
      7151 MEMB     58       DOPC     H7R      HAL2     0.900000E-01   1.00800           0
      7152 MEMB     58       DOPC     H7S      HAL2     0.900000E-01   1.00800           0
      7153 MEMB     58       DOPC     C28      CTL2    -0.180000       12.0110           0
      7154 MEMB     58       DOPC     H8R      HAL2     0.900000E-01   1.00800           0
      7155 MEMB     58       DOPC     H8S      HAL2     0.900000E-01   1.00800           0
      7156 MEMB     58       DOPC     C29      CEL1    -0.150000       12.0110           0
      7157 MEMB     58       DOPC     H9R      HEL1     0.150000       1.00800           0
      7158 MEMB     58       DOPC     C210     CEL1    -0.150000       12.0110           0
      7159 MEMB     58       DOPC     H10R     HEL1     0.150000       1.00800           0
      7160 MEMB     58       DOPC     C211     CTL2    -0.180000       12.0110           0
      7161 MEMB     58       DOPC     H11R     HAL2     0.900000E-01   1.00800           0
      7162 MEMB     58       DOPC     H11S     HAL2     0.900000E-01   1.00800           0
      7163 MEMB     58       DOPC     C212     CTL2    -0.180000       12.0110           0
      7164 MEMB     58       DOPC     H12R     HAL2     0.900000E-01   1.00800           0
      7165 MEMB     58       DOPC     H12S     HAL2     0.900000E-01   1.00800           0
      7166 MEMB     58       DOPC     C213     CTL2    -0.180000       12.0110           0
      7167 MEMB     58       DOPC     H13R     HAL2     0.900000E-01   1.00800           0
      7168 MEMB     58       DOPC     H13S     HAL2     0.900000E-01   1.00800           0
      7169 MEMB     58       DOPC     C214     CTL2    -0.180000       12.0110           0
      7170 MEMB     58       DOPC     H14R     HAL2     0.900000E-01   1.00800           0
      7171 MEMB     58       DOPC     H14S     HAL2     0.900000E-01   1.00800           0
      7172 MEMB     58       DOPC     C215     CTL2    -0.180000       12.0110           0
      7173 MEMB     58       DOPC     H15R     HAL2     0.900000E-01   1.00800           0
      7174 MEMB     58       DOPC     H15S     HAL2     0.900000E-01   1.00800           0
      7175 MEMB     58       DOPC     C216     CTL2    -0.180000       12.0110           0
      7176 MEMB     58       DOPC     H16R     HAL2     0.900000E-01   1.00800           0
      7177 MEMB     58       DOPC     H16S     HAL2     0.900000E-01   1.00800           0
      7178 MEMB     58       DOPC     C217     CTL2    -0.180000       12.0110           0
      7179 MEMB     58       DOPC     H17R     HAL2     0.900000E-01   1.00800           0
      7180 MEMB     58       DOPC     H17S     HAL2     0.900000E-01   1.00800           0
      7181 MEMB     58       DOPC     C218     CTL3    -0.270000       12.0110           0
      7182 MEMB     58       DOPC     H18R     HAL3     0.900000E-01   1.00800           0
      7183 MEMB     58       DOPC     H18S     HAL3     0.900000E-01   1.00800           0
      7184 MEMB     58       DOPC     H18T     HAL3     0.900000E-01   1.00800           0
      7185 MEMB     58       DOPC     C33      CTL2    -0.180000       12.0110           0
      7186 MEMB     58       DOPC     H3X      HAL2     0.900000E-01   1.00800           0
      7187 MEMB     58       DOPC     H3Y      HAL2     0.900000E-01   1.00800           0
      7188 MEMB     58       DOPC     C34      CTL2    -0.180000       12.0110           0
      7189 MEMB     58       DOPC     H4X      HAL2     0.900000E-01   1.00800           0
      7190 MEMB     58       DOPC     H4Y      HAL2     0.900000E-01   1.00800           0
      7191 MEMB     58       DOPC     C35      CTL2    -0.180000       12.0110           0
      7192 MEMB     58       DOPC     H5X      HAL2     0.900000E-01   1.00800           0
      7193 MEMB     58       DOPC     H5Y      HAL2     0.900000E-01   1.00800           0
      7194 MEMB     58       DOPC     C36      CTL2    -0.180000       12.0110           0
      7195 MEMB     58       DOPC     H6X      HAL2     0.900000E-01   1.00800           0
      7196 MEMB     58       DOPC     H6Y      HAL2     0.900000E-01   1.00800           0
      7197 MEMB     58       DOPC     C37      CTL2    -0.180000       12.0110           0
      7198 MEMB     58       DOPC     H7X      HAL2     0.900000E-01   1.00800           0
      7199 MEMB     58       DOPC     H7Y      HAL2     0.900000E-01   1.00800           0
      7200 MEMB     58       DOPC     C38      CTL2    -0.180000       12.0110           0
      7201 MEMB     58       DOPC     H8X      HAL2     0.900000E-01   1.00800           0
      7202 MEMB     58       DOPC     H8Y      HAL2     0.900000E-01   1.00800           0
      7203 MEMB     58       DOPC     C39      CEL1    -0.150000       12.0110           0
      7204 MEMB     58       DOPC     H9X      HEL1     0.150000       1.00800           0
      7205 MEMB     58       DOPC     C310     CEL1    -0.150000       12.0110           0
      7206 MEMB     58       DOPC     H10X     HEL1     0.150000       1.00800           0
      7207 MEMB     58       DOPC     C311     CTL2    -0.180000       12.0110           0
      7208 MEMB     58       DOPC     H11X     HAL2     0.900000E-01   1.00800           0
      7209 MEMB     58       DOPC     H11Y     HAL2     0.900000E-01   1.00800           0
      7210 MEMB     58       DOPC     C312     CTL2    -0.180000       12.0110           0
      7211 MEMB     58       DOPC     H12X     HAL2     0.900000E-01   1.00800           0
      7212 MEMB     58       DOPC     H12Y     HAL2     0.900000E-01   1.00800           0
      7213 MEMB     58       DOPC     C313     CTL2    -0.180000       12.0110           0
      7214 MEMB     58       DOPC     H13X     HAL2     0.900000E-01   1.00800           0
      7215 MEMB     58       DOPC     H13Y     HAL2     0.900000E-01   1.00800           0
      7216 MEMB     58       DOPC     C314     CTL2    -0.180000       12.0110           0
      7217 MEMB     58       DOPC     H14X     HAL2     0.900000E-01   1.00800           0
      7218 MEMB     58       DOPC     H14Y     HAL2     0.900000E-01   1.00800           0
      7219 MEMB     58       DOPC     C315     CTL2    -0.180000       12.0110           0
      7220 MEMB     58       DOPC     H15X     HAL2     0.900000E-01   1.00800           0
      7221 MEMB     58       DOPC     H15Y     HAL2     0.900000E-01   1.00800           0
      7222 MEMB     58       DOPC     C316     CTL2    -0.180000       12.0110           0
      7223 MEMB     58       DOPC     H16X     HAL2     0.900000E-01   1.00800           0
      7224 MEMB     58       DOPC     H16Y     HAL2     0.900000E-01   1.00800           0
      7225 MEMB     58       DOPC     C317     CTL2    -0.180000       12.0110           0
      7226 MEMB     58       DOPC     H17X     HAL2     0.900000E-01   1.00800           0
      7227 MEMB     58       DOPC     H17Y     HAL2     0.900000E-01   1.00800           0
      7228 MEMB     58       DOPC     C318     CTL3    -0.270000       12.0110           0
      7229 MEMB     58       DOPC     H18X     HAL3     0.900000E-01   1.00800           0
      7230 MEMB     58       DOPC     H18Y     HAL3     0.900000E-01   1.00800           0
      7231 MEMB     58       DOPC     H18Z     HAL3     0.900000E-01   1.00800           0
      7232 MEMB     59       23SM     N        NTL     -0.600000       14.0070           0
      7233 MEMB     59       23SM     C15      CTL5    -0.350000       12.0110           0
      7234 MEMB     59       23SM     H15A     HL       0.250000       1.00800           0
      7235 MEMB     59       23SM     H15B     HL       0.250000       1.00800           0
      7236 MEMB     59       23SM     H15C     HL       0.250000       1.00800           0
      7237 MEMB     59       23SM     C14      CTL5    -0.350000       12.0110           0
      7238 MEMB     59       23SM     H14A     HL       0.250000       1.00800           0
      7239 MEMB     59       23SM     H14B     HL       0.250000       1.00800           0
      7240 MEMB     59       23SM     H14C     HL       0.250000       1.00800           0
      7241 MEMB     59       23SM     C13      CTL5    -0.350000       12.0110           0
      7242 MEMB     59       23SM     H13A     HL       0.250000       1.00800           0
      7243 MEMB     59       23SM     H13B     HL       0.250000       1.00800           0
      7244 MEMB     59       23SM     H13C     HL       0.250000       1.00800           0
      7245 MEMB     59       23SM     C12      CTL2    -0.100000       12.0110           0
      7246 MEMB     59       23SM     H12A     HL       0.250000       1.00800           0
      7247 MEMB     59       23SM     H12B     HL       0.250000       1.00800           0
      7248 MEMB     59       23SM     C11      CTL2    -0.800000E-01   12.0110           0
      7249 MEMB     59       23SM     H11A     HAL2     0.900000E-01   1.00800           0
      7250 MEMB     59       23SM     H11B     HAL2     0.900000E-01   1.00800           0
      7251 MEMB     59       23SM     P        PL        1.50000       30.9740           0
      7252 MEMB     59       23SM     O13      O2L     -0.780000       15.9994           0
      7253 MEMB     59       23SM     O14      O2L     -0.780000       15.9994           0
      7254 MEMB     59       23SM     O11      OSLP    -0.570000       15.9994           0
      7255 MEMB     59       23SM     O12      OSLP    -0.570000       15.9994           0
      7256 MEMB     59       23SM     C1S      CTL2    -0.800000E-01   12.0110           0
      7257 MEMB     59       23SM     H1S      HAL2     0.900000E-01   1.00800           0
      7258 MEMB     59       23SM     H1T      HAL2     0.900000E-01   1.00800           0
      7259 MEMB     59       23SM     NF       NHL     -0.700000       14.0070           0
      7260 MEMB     59       23SM     HNF      H        0.350000       1.00800           0
      7261 MEMB     59       23SM     C2S      CTL1     0.300000       12.0110           0
      7262 MEMB     59       23SM     H2S      HAL1     0.500000E-01   1.00800           0
      7263 MEMB     59       23SM     C3S      CTO1     0.500000       12.0110           0
      7264 MEMB     59       23SM     H3S      HAL1    -0.110000       1.00800           0
      7265 MEMB     59       23SM     O3       OHL     -0.690000       15.9994           0
      7266 MEMB     59       23SM     HO3      HOL      0.300000       1.00800           0
      7267 MEMB     59       23SM     C4S      CEL3    -0.150000       12.0110           0
      7268 MEMB     59       23SM     H4S      HEL1     0.150000       1.00800           0
      7269 MEMB     59       23SM     C5S      CEL3    -0.150000       12.0110           0
      7270 MEMB     59       23SM     H5S      HEL1     0.150000       1.00800           0
      7271 MEMB     59       23SM     C6S      CTL2    -0.180000       12.0110           0
      7272 MEMB     59       23SM     H6S      HAL2     0.900000E-01   1.00800           0
      7273 MEMB     59       23SM     H6T      HAL2     0.900000E-01   1.00800           0
      7274 MEMB     59       23SM     C7S      CTL2    -0.180000       12.0110           0
      7275 MEMB     59       23SM     H7S      HAL2     0.900000E-01   1.00800           0
      7276 MEMB     59       23SM     H7T      HAL2     0.900000E-01   1.00800           0
      7277 MEMB     59       23SM     C8S      CTL2    -0.180000       12.0110           0
      7278 MEMB     59       23SM     H8S      HAL2     0.900000E-01   1.00800           0
      7279 MEMB     59       23SM     H8T      HAL2     0.900000E-01   1.00800           0
      7280 MEMB     59       23SM     C9S      CTL2    -0.180000       12.0110           0
      7281 MEMB     59       23SM     H9S      HAL2     0.900000E-01   1.00800           0
      7282 MEMB     59       23SM     H9T      HAL2     0.900000E-01   1.00800           0
      7283 MEMB     59       23SM     C10S     CTL2    -0.180000       12.0110           0
      7284 MEMB     59       23SM     H10S     HAL2     0.900000E-01   1.00800           0
      7285 MEMB     59       23SM     H10T     HAL2     0.900000E-01   1.00800           0
      7286 MEMB     59       23SM     C11S     CTL2    -0.180000       12.0110           0
      7287 MEMB     59       23SM     H11S     HAL2     0.900000E-01   1.00800           0
      7288 MEMB     59       23SM     H11T     HAL2     0.900000E-01   1.00800           0
      7289 MEMB     59       23SM     C12S     CTL2    -0.180000       12.0110           0
      7290 MEMB     59       23SM     H12S     HAL2     0.900000E-01   1.00800           0
      7291 MEMB     59       23SM     H12T     HAL2     0.900000E-01   1.00800           0
      7292 MEMB     59       23SM     C13S     CTL2    -0.180000       12.0110           0
      7293 MEMB     59       23SM     H13S     HAL2     0.900000E-01   1.00800           0
      7294 MEMB     59       23SM     H13T     HAL2     0.900000E-01   1.00800           0
      7295 MEMB     59       23SM     C14S     CTL2    -0.180000       12.0110           0
      7296 MEMB     59       23SM     H14S     HAL2     0.900000E-01   1.00800           0
      7297 MEMB     59       23SM     H14T     HAL2     0.900000E-01   1.00800           0
      7298 MEMB     59       23SM     C15S     CTL2    -0.180000       12.0110           0
      7299 MEMB     59       23SM     H15S     HAL2     0.900000E-01   1.00800           0
      7300 MEMB     59       23SM     H15T     HAL2     0.900000E-01   1.00800           0
      7301 MEMB     59       23SM     C16S     CTL2    -0.180000       12.0110           0
      7302 MEMB     59       23SM     H16S     HAL2     0.900000E-01   1.00800           0
      7303 MEMB     59       23SM     H16T     HAL2     0.900000E-01   1.00800           0
      7304 MEMB     59       23SM     C17S     CTL2    -0.180000       12.0110           0
      7305 MEMB     59       23SM     H17S     HAL2     0.900000E-01   1.00800           0
      7306 MEMB     59       23SM     H17T     HAL2     0.900000E-01   1.00800           0
      7307 MEMB     59       23SM     C18S     CTL3    -0.270000       12.0110           0
      7308 MEMB     59       23SM     H18S     HAL3     0.900000E-01   1.00800           0
      7309 MEMB     59       23SM     H18T     HAL3     0.900000E-01   1.00800           0
      7310 MEMB     59       23SM     H18U     HAL3     0.900000E-01   1.00800           0
      7311 MEMB     59       23SM     C1F      C        0.550000       12.0110           0
      7312 MEMB     59       23SM     OF       O       -0.600000       15.9994           0
      7313 MEMB     59       23SM     C2F      CTL2    -0.700000E-01   12.0110           0
      7314 MEMB     59       23SM     H2F      HAL2     0.600000E-01   1.00800           0
      7315 MEMB     59       23SM     H2G      HAL2     0.600000E-01   1.00800           0
      7316 MEMB     59       23SM     C3F      CTL2    -0.180000       12.0110           0
      7317 MEMB     59       23SM     H3F      HAL2     0.900000E-01   1.00800           0
      7318 MEMB     59       23SM     H3G      HAL2     0.900000E-01   1.00800           0
      7319 MEMB     59       23SM     C4F      CTL2    -0.180000       12.0110           0
      7320 MEMB     59       23SM     H4F      HAL2     0.900000E-01   1.00800           0
      7321 MEMB     59       23SM     H4G      HAL2     0.900000E-01   1.00800           0
      7322 MEMB     59       23SM     C5F      CTL2    -0.180000       12.0110           0
      7323 MEMB     59       23SM     H5F      HAL2     0.900000E-01   1.00800           0
      7324 MEMB     59       23SM     H5G      HAL2     0.900000E-01   1.00800           0
      7325 MEMB     59       23SM     C6F      CTL2    -0.180000       12.0110           0
      7326 MEMB     59       23SM     H6F      HAL2     0.900000E-01   1.00800           0
      7327 MEMB     59       23SM     H6G      HAL2     0.900000E-01   1.00800           0
      7328 MEMB     59       23SM     C7F      CTL2    -0.180000       12.0110           0
      7329 MEMB     59       23SM     H7F      HAL2     0.900000E-01   1.00800           0
      7330 MEMB     59       23SM     H7G      HAL2     0.900000E-01   1.00800           0
      7331 MEMB     59       23SM     C8F      CTL2    -0.180000       12.0110           0
      7332 MEMB     59       23SM     H8F      HAL2     0.900000E-01   1.00800           0
      7333 MEMB     59       23SM     H8G      HAL2     0.900000E-01   1.00800           0
      7334 MEMB     59       23SM     C9F      CTL2    -0.180000       12.0110           0
      7335 MEMB     59       23SM     H9F      HAL2     0.900000E-01   1.00800           0
      7336 MEMB     59       23SM     H9G      HAL2     0.900000E-01   1.00800           0
      7337 MEMB     59       23SM     C10F     CTL2    -0.180000       12.0110           0
      7338 MEMB     59       23SM     H10F     HAL2     0.900000E-01   1.00800           0
      7339 MEMB     59       23SM     H10G     HAL2     0.900000E-01   1.00800           0
      7340 MEMB     59       23SM     C11F     CTL2    -0.180000       12.0110           0
      7341 MEMB     59       23SM     H11F     HAL2     0.900000E-01   1.00800           0
      7342 MEMB     59       23SM     H11G     HAL2     0.900000E-01   1.00800           0
      7343 MEMB     59       23SM     C12F     CTL2    -0.180000       12.0110           0
      7344 MEMB     59       23SM     H12F     HAL2     0.900000E-01   1.00800           0
      7345 MEMB     59       23SM     H12G     HAL2     0.900000E-01   1.00800           0
      7346 MEMB     59       23SM     C13F     CTL2    -0.180000       12.0110           0
      7347 MEMB     59       23SM     H13F     HAL2     0.900000E-01   1.00800           0
      7348 MEMB     59       23SM     H13G     HAL2     0.900000E-01   1.00800           0
      7349 MEMB     59       23SM     C14F     CTL2    -0.180000       12.0110           0
      7350 MEMB     59       23SM     H14F     HAL2     0.900000E-01   1.00800           0
      7351 MEMB     59       23SM     H14G     HAL2     0.900000E-01   1.00800           0
      7352 MEMB     59       23SM     C15F     CTL2    -0.180000       12.0110           0
      7353 MEMB     59       23SM     H15F     HAL2     0.900000E-01   1.00800           0
      7354 MEMB     59       23SM     H15G     HAL2     0.900000E-01   1.00800           0
      7355 MEMB     59       23SM     C16F     CTL2    -0.180000       12.0110           0
      7356 MEMB     59       23SM     H16F     HAL2     0.900000E-01   1.00800           0
      7357 MEMB     59       23SM     H16G     HAL2     0.900000E-01   1.00800           0
      7358 MEMB     59       23SM     C17F     CTL2    -0.180000       12.0110           0
      7359 MEMB     59       23SM     H17F     HAL2     0.900000E-01   1.00800           0
      7360 MEMB     59       23SM     H17G     HAL2     0.900000E-01   1.00800           0
      7361 MEMB     59       23SM     C18F     CTL2    -0.180000       12.0110           0
      7362 MEMB     59       23SM     H18F     HAL2     0.900000E-01   1.00800           0
      7363 MEMB     59       23SM     H18G     HAL2     0.900000E-01   1.00800           0
      7364 MEMB     59       23SM     C19F     CTL2    -0.180000       12.0110           0
      7365 MEMB     59       23SM     H19F     HAL2     0.900000E-01   1.00800           0
      7366 MEMB     59       23SM     H19G     HAL2     0.900000E-01   1.00800           0
      7367 MEMB     59       23SM     C20F     CTL2    -0.180000       12.0110           0
      7368 MEMB     59       23SM     H20F     HAL2     0.900000E-01   1.00800           0
      7369 MEMB     59       23SM     H20G     HAL2     0.900000E-01   1.00800           0
      7370 MEMB     59       23SM     C21F     CTL2    -0.180000       12.0110           0
      7371 MEMB     59       23SM     H21F     HAL2     0.900000E-01   1.00800           0
      7372 MEMB     59       23SM     H21G     HAL2     0.900000E-01   1.00800           0
      7373 MEMB     59       23SM     C22F     CTL2    -0.180000       12.0110           0
      7374 MEMB     59       23SM     H22F     HAL2     0.900000E-01   1.00800           0
      7375 MEMB     59       23SM     H22G     HAL2     0.900000E-01   1.00800           0
      7376 MEMB     59       23SM     C23F     CTL3    -0.270000       12.0110           0
      7377 MEMB     59       23SM     H23F     HAL3     0.900000E-01   1.00800           0
      7378 MEMB     59       23SM     H23G     HAL3     0.900000E-01   1.00800           0
      7379 MEMB     59       23SM     H23H     HAL3     0.900000E-01   1.00800           0
      7380 MEMB     60       23SM     N        NTL     -0.600000       14.0070           0
      7381 MEMB     60       23SM     C15      CTL5    -0.350000       12.0110           0
      7382 MEMB     60       23SM     H15A     HL       0.250000       1.00800           0
      7383 MEMB     60       23SM     H15B     HL       0.250000       1.00800           0
      7384 MEMB     60       23SM     H15C     HL       0.250000       1.00800           0
      7385 MEMB     60       23SM     C14      CTL5    -0.350000       12.0110           0
      7386 MEMB     60       23SM     H14A     HL       0.250000       1.00800           0
      7387 MEMB     60       23SM     H14B     HL       0.250000       1.00800           0
      7388 MEMB     60       23SM     H14C     HL       0.250000       1.00800           0
      7389 MEMB     60       23SM     C13      CTL5    -0.350000       12.0110           0
      7390 MEMB     60       23SM     H13A     HL       0.250000       1.00800           0
      7391 MEMB     60       23SM     H13B     HL       0.250000       1.00800           0
      7392 MEMB     60       23SM     H13C     HL       0.250000       1.00800           0
      7393 MEMB     60       23SM     C12      CTL2    -0.100000       12.0110           0
      7394 MEMB     60       23SM     H12A     HL       0.250000       1.00800           0
      7395 MEMB     60       23SM     H12B     HL       0.250000       1.00800           0
      7396 MEMB     60       23SM     C11      CTL2    -0.800000E-01   12.0110           0
      7397 MEMB     60       23SM     H11A     HAL2     0.900000E-01   1.00800           0
      7398 MEMB     60       23SM     H11B     HAL2     0.900000E-01   1.00800           0
      7399 MEMB     60       23SM     P        PL        1.50000       30.9740           0
      7400 MEMB     60       23SM     O13      O2L     -0.780000       15.9994           0
      7401 MEMB     60       23SM     O14      O2L     -0.780000       15.9994           0
      7402 MEMB     60       23SM     O11      OSLP    -0.570000       15.9994           0
      7403 MEMB     60       23SM     O12      OSLP    -0.570000       15.9994           0
      7404 MEMB     60       23SM     C1S      CTL2    -0.800000E-01   12.0110           0
      7405 MEMB     60       23SM     H1S      HAL2     0.900000E-01   1.00800           0
      7406 MEMB     60       23SM     H1T      HAL2     0.900000E-01   1.00800           0
      7407 MEMB     60       23SM     NF       NHL     -0.700000       14.0070           0
      7408 MEMB     60       23SM     HNF      H        0.350000       1.00800           0
      7409 MEMB     60       23SM     C2S      CTL1     0.300000       12.0110           0
      7410 MEMB     60       23SM     H2S      HAL1     0.500000E-01   1.00800           0
      7411 MEMB     60       23SM     C3S      CTO1     0.500000       12.0110           0
      7412 MEMB     60       23SM     H3S      HAL1    -0.110000       1.00800           0
      7413 MEMB     60       23SM     O3       OHL     -0.690000       15.9994           0
      7414 MEMB     60       23SM     HO3      HOL      0.300000       1.00800           0
      7415 MEMB     60       23SM     C4S      CEL3    -0.150000       12.0110           0
      7416 MEMB     60       23SM     H4S      HEL1     0.150000       1.00800           0
      7417 MEMB     60       23SM     C5S      CEL3    -0.150000       12.0110           0
      7418 MEMB     60       23SM     H5S      HEL1     0.150000       1.00800           0
      7419 MEMB     60       23SM     C6S      CTL2    -0.180000       12.0110           0
      7420 MEMB     60       23SM     H6S      HAL2     0.900000E-01   1.00800           0
      7421 MEMB     60       23SM     H6T      HAL2     0.900000E-01   1.00800           0
      7422 MEMB     60       23SM     C7S      CTL2    -0.180000       12.0110           0
      7423 MEMB     60       23SM     H7S      HAL2     0.900000E-01   1.00800           0
      7424 MEMB     60       23SM     H7T      HAL2     0.900000E-01   1.00800           0
      7425 MEMB     60       23SM     C8S      CTL2    -0.180000       12.0110           0
      7426 MEMB     60       23SM     H8S      HAL2     0.900000E-01   1.00800           0
      7427 MEMB     60       23SM     H8T      HAL2     0.900000E-01   1.00800           0
      7428 MEMB     60       23SM     C9S      CTL2    -0.180000       12.0110           0
      7429 MEMB     60       23SM     H9S      HAL2     0.900000E-01   1.00800           0
      7430 MEMB     60       23SM     H9T      HAL2     0.900000E-01   1.00800           0
      7431 MEMB     60       23SM     C10S     CTL2    -0.180000       12.0110           0
      7432 MEMB     60       23SM     H10S     HAL2     0.900000E-01   1.00800           0
      7433 MEMB     60       23SM     H10T     HAL2     0.900000E-01   1.00800           0
      7434 MEMB     60       23SM     C11S     CTL2    -0.180000       12.0110           0
      7435 MEMB     60       23SM     H11S     HAL2     0.900000E-01   1.00800           0
      7436 MEMB     60       23SM     H11T     HAL2     0.900000E-01   1.00800           0
      7437 MEMB     60       23SM     C12S     CTL2    -0.180000       12.0110           0
      7438 MEMB     60       23SM     H12S     HAL2     0.900000E-01   1.00800           0
      7439 MEMB     60       23SM     H12T     HAL2     0.900000E-01   1.00800           0
      7440 MEMB     60       23SM     C13S     CTL2    -0.180000       12.0110           0
      7441 MEMB     60       23SM     H13S     HAL2     0.900000E-01   1.00800           0
      7442 MEMB     60       23SM     H13T     HAL2     0.900000E-01   1.00800           0
      7443 MEMB     60       23SM     C14S     CTL2    -0.180000       12.0110           0
      7444 MEMB     60       23SM     H14S     HAL2     0.900000E-01   1.00800           0
      7445 MEMB     60       23SM     H14T     HAL2     0.900000E-01   1.00800           0
      7446 MEMB     60       23SM     C15S     CTL2    -0.180000       12.0110           0
      7447 MEMB     60       23SM     H15S     HAL2     0.900000E-01   1.00800           0
      7448 MEMB     60       23SM     H15T     HAL2     0.900000E-01   1.00800           0
      7449 MEMB     60       23SM     C16S     CTL2    -0.180000       12.0110           0
      7450 MEMB     60       23SM     H16S     HAL2     0.900000E-01   1.00800           0
      7451 MEMB     60       23SM     H16T     HAL2     0.900000E-01   1.00800           0
      7452 MEMB     60       23SM     C17S     CTL2    -0.180000       12.0110           0
      7453 MEMB     60       23SM     H17S     HAL2     0.900000E-01   1.00800           0
      7454 MEMB     60       23SM     H17T     HAL2     0.900000E-01   1.00800           0
      7455 MEMB     60       23SM     C18S     CTL3    -0.270000       12.0110           0
      7456 MEMB     60       23SM     H18S     HAL3     0.900000E-01   1.00800           0
      7457 MEMB     60       23SM     H18T     HAL3     0.900000E-01   1.00800           0
      7458 MEMB     60       23SM     H18U     HAL3     0.900000E-01   1.00800           0
      7459 MEMB     60       23SM     C1F      C        0.550000       12.0110           0
      7460 MEMB     60       23SM     OF       O       -0.600000       15.9994           0
      7461 MEMB     60       23SM     C2F      CTL2    -0.700000E-01   12.0110           0
      7462 MEMB     60       23SM     H2F      HAL2     0.600000E-01   1.00800           0
      7463 MEMB     60       23SM     H2G      HAL2     0.600000E-01   1.00800           0
      7464 MEMB     60       23SM     C3F      CTL2    -0.180000       12.0110           0
      7465 MEMB     60       23SM     H3F      HAL2     0.900000E-01   1.00800           0
      7466 MEMB     60       23SM     H3G      HAL2     0.900000E-01   1.00800           0
      7467 MEMB     60       23SM     C4F      CTL2    -0.180000       12.0110           0
      7468 MEMB     60       23SM     H4F      HAL2     0.900000E-01   1.00800           0
      7469 MEMB     60       23SM     H4G      HAL2     0.900000E-01   1.00800           0
      7470 MEMB     60       23SM     C5F      CTL2    -0.180000       12.0110           0
      7471 MEMB     60       23SM     H5F      HAL2     0.900000E-01   1.00800           0
      7472 MEMB     60       23SM     H5G      HAL2     0.900000E-01   1.00800           0
      7473 MEMB     60       23SM     C6F      CTL2    -0.180000       12.0110           0
      7474 MEMB     60       23SM     H6F      HAL2     0.900000E-01   1.00800           0
      7475 MEMB     60       23SM     H6G      HAL2     0.900000E-01   1.00800           0
      7476 MEMB     60       23SM     C7F      CTL2    -0.180000       12.0110           0
      7477 MEMB     60       23SM     H7F      HAL2     0.900000E-01   1.00800           0
      7478 MEMB     60       23SM     H7G      HAL2     0.900000E-01   1.00800           0
      7479 MEMB     60       23SM     C8F      CTL2    -0.180000       12.0110           0
      7480 MEMB     60       23SM     H8F      HAL2     0.900000E-01   1.00800           0
      7481 MEMB     60       23SM     H8G      HAL2     0.900000E-01   1.00800           0
      7482 MEMB     60       23SM     C9F      CTL2    -0.180000       12.0110           0
      7483 MEMB     60       23SM     H9F      HAL2     0.900000E-01   1.00800           0
      7484 MEMB     60       23SM     H9G      HAL2     0.900000E-01   1.00800           0
      7485 MEMB     60       23SM     C10F     CTL2    -0.180000       12.0110           0
      7486 MEMB     60       23SM     H10F     HAL2     0.900000E-01   1.00800           0
      7487 MEMB     60       23SM     H10G     HAL2     0.900000E-01   1.00800           0
      7488 MEMB     60       23SM     C11F     CTL2    -0.180000       12.0110           0
      7489 MEMB     60       23SM     H11F     HAL2     0.900000E-01   1.00800           0
      7490 MEMB     60       23SM     H11G     HAL2     0.900000E-01   1.00800           0
      7491 MEMB     60       23SM     C12F     CTL2    -0.180000       12.0110           0
      7492 MEMB     60       23SM     H12F     HAL2     0.900000E-01   1.00800           0
      7493 MEMB     60       23SM     H12G     HAL2     0.900000E-01   1.00800           0
      7494 MEMB     60       23SM     C13F     CTL2    -0.180000       12.0110           0
      7495 MEMB     60       23SM     H13F     HAL2     0.900000E-01   1.00800           0
      7496 MEMB     60       23SM     H13G     HAL2     0.900000E-01   1.00800           0
      7497 MEMB     60       23SM     C14F     CTL2    -0.180000       12.0110           0
      7498 MEMB     60       23SM     H14F     HAL2     0.900000E-01   1.00800           0
      7499 MEMB     60       23SM     H14G     HAL2     0.900000E-01   1.00800           0
      7500 MEMB     60       23SM     C15F     CTL2    -0.180000       12.0110           0
      7501 MEMB     60       23SM     H15F     HAL2     0.900000E-01   1.00800           0
      7502 MEMB     60       23SM     H15G     HAL2     0.900000E-01   1.00800           0
      7503 MEMB     60       23SM     C16F     CTL2    -0.180000       12.0110           0
      7504 MEMB     60       23SM     H16F     HAL2     0.900000E-01   1.00800           0
      7505 MEMB     60       23SM     H16G     HAL2     0.900000E-01   1.00800           0
      7506 MEMB     60       23SM     C17F     CTL2    -0.180000       12.0110           0
      7507 MEMB     60       23SM     H17F     HAL2     0.900000E-01   1.00800           0
      7508 MEMB     60       23SM     H17G     HAL2     0.900000E-01   1.00800           0
      7509 MEMB     60       23SM     C18F     CTL2    -0.180000       12.0110           0
      7510 MEMB     60       23SM     H18F     HAL2     0.900000E-01   1.00800           0
      7511 MEMB     60       23SM     H18G     HAL2     0.900000E-01   1.00800           0
      7512 MEMB     60       23SM     C19F     CTL2    -0.180000       12.0110           0
      7513 MEMB     60       23SM     H19F     HAL2     0.900000E-01   1.00800           0
      7514 MEMB     60       23SM     H19G     HAL2     0.900000E-01   1.00800           0
      7515 MEMB     60       23SM     C20F     CTL2    -0.180000       12.0110           0
      7516 MEMB     60       23SM     H20F     HAL2     0.900000E-01   1.00800           0
      7517 MEMB     60       23SM     H20G     HAL2     0.900000E-01   1.00800           0
      7518 MEMB     60       23SM     C21F     CTL2    -0.180000       12.0110           0
      7519 MEMB     60       23SM     H21F     HAL2     0.900000E-01   1.00800           0
      7520 MEMB     60       23SM     H21G     HAL2     0.900000E-01   1.00800           0
      7521 MEMB     60       23SM     C22F     CTL2    -0.180000       12.0110           0
      7522 MEMB     60       23SM     H22F     HAL2     0.900000E-01   1.00800           0
      7523 MEMB     60       23SM     H22G     HAL2     0.900000E-01   1.00800           0
      7524 MEMB     60       23SM     C23F     CTL3    -0.270000       12.0110           0
      7525 MEMB     60       23SM     H23F     HAL3     0.900000E-01   1.00800           0
      7526 MEMB     60       23SM     H23G     HAL3     0.900000E-01   1.00800           0
      7527 MEMB     60       23SM     H23H     HAL3     0.900000E-01   1.00800           0
      7528 MEMB     61       DOPE     N        NH3L    -0.300000       14.0070           0
      7529 MEMB     61       DOPE     HN1      HCL      0.330000       1.00800           0
      7530 MEMB     61       DOPE     HN2      HCL      0.330000       1.00800           0
      7531 MEMB     61       DOPE     HN3      HCL      0.330000       1.00800           0
      7532 MEMB     61       DOPE     C12      CTL2     0.130000       12.0110           0
      7533 MEMB     61       DOPE     H12A     HAL2     0.900000E-01   1.00800           0
      7534 MEMB     61       DOPE     H12B     HAL2     0.900000E-01   1.00800           0
      7535 MEMB     61       DOPE     C11      CTL2    -0.800000E-01   12.0110           0
      7536 MEMB     61       DOPE     H11A     HAL2     0.900000E-01   1.00800           0
      7537 MEMB     61       DOPE     H11B     HAL2     0.900000E-01   1.00800           0
      7538 MEMB     61       DOPE     P        PL        1.50000       30.9740           0
      7539 MEMB     61       DOPE     O13      O2L     -0.780000       15.9994           0
      7540 MEMB     61       DOPE     O14      O2L     -0.780000       15.9994           0
      7541 MEMB     61       DOPE     O11      OSLP    -0.570000       15.9994           0
      7542 MEMB     61       DOPE     O12      OSLP    -0.570000       15.9994           0
      7543 MEMB     61       DOPE     C1       CTL2    -0.800000E-01   12.0110           0
      7544 MEMB     61       DOPE     HA       HAL2     0.900000E-01   1.00800           0
      7545 MEMB     61       DOPE     HB       HAL2     0.900000E-01   1.00800           0
      7546 MEMB     61       DOPE     C2       CTL1     0.170000       12.0110           0
      7547 MEMB     61       DOPE     HS       HAL1     0.900000E-01   1.00800           0
      7548 MEMB     61       DOPE     O21      OSL     -0.490000       15.9994           0
      7549 MEMB     61       DOPE     C21      CL       0.900000       12.0110           0
      7550 MEMB     61       DOPE     O22      OBL     -0.630000       15.9994           0
      7551 MEMB     61       DOPE     C22      CTL2    -0.220000       12.0110           0
      7552 MEMB     61       DOPE     H2R      HAL2     0.900000E-01   1.00800           0
      7553 MEMB     61       DOPE     H2S      HAL2     0.900000E-01   1.00800           0
      7554 MEMB     61       DOPE     C3       CTL2     0.800000E-01   12.0110           0
      7555 MEMB     61       DOPE     HX       HAL2     0.900000E-01   1.00800           0
      7556 MEMB     61       DOPE     HY       HAL2     0.900000E-01   1.00800           0
      7557 MEMB     61       DOPE     O31      OSL     -0.490000       15.9994           0
      7558 MEMB     61       DOPE     C31      CL       0.900000       12.0110           0
      7559 MEMB     61       DOPE     O32      OBL     -0.630000       15.9994           0
      7560 MEMB     61       DOPE     C32      CTL2    -0.220000       12.0110           0
      7561 MEMB     61       DOPE     H2X      HAL2     0.900000E-01   1.00800           0
      7562 MEMB     61       DOPE     H2Y      HAL2     0.900000E-01   1.00800           0
      7563 MEMB     61       DOPE     C23      CTL2    -0.180000       12.0110           0
      7564 MEMB     61       DOPE     H3R      HAL2     0.900000E-01   1.00800           0
      7565 MEMB     61       DOPE     H3S      HAL2     0.900000E-01   1.00800           0
      7566 MEMB     61       DOPE     C24      CTL2    -0.180000       12.0110           0
      7567 MEMB     61       DOPE     H4R      HAL2     0.900000E-01   1.00800           0
      7568 MEMB     61       DOPE     H4S      HAL2     0.900000E-01   1.00800           0
      7569 MEMB     61       DOPE     C25      CTL2    -0.180000       12.0110           0
      7570 MEMB     61       DOPE     H5R      HAL2     0.900000E-01   1.00800           0
      7571 MEMB     61       DOPE     H5S      HAL2     0.900000E-01   1.00800           0
      7572 MEMB     61       DOPE     C26      CTL2    -0.180000       12.0110           0
      7573 MEMB     61       DOPE     H6R      HAL2     0.900000E-01   1.00800           0
      7574 MEMB     61       DOPE     H6S      HAL2     0.900000E-01   1.00800           0
      7575 MEMB     61       DOPE     C27      CTL2    -0.180000       12.0110           0
      7576 MEMB     61       DOPE     H7R      HAL2     0.900000E-01   1.00800           0
      7577 MEMB     61       DOPE     H7S      HAL2     0.900000E-01   1.00800           0
      7578 MEMB     61       DOPE     C28      CTL2    -0.180000       12.0110           0
      7579 MEMB     61       DOPE     H8R      HAL2     0.900000E-01   1.00800           0
      7580 MEMB     61       DOPE     H8S      HAL2     0.900000E-01   1.00800           0
      7581 MEMB     61       DOPE     C29      CEL1    -0.150000       12.0110           0
      7582 MEMB     61       DOPE     H9R      HEL1     0.150000       1.00800           0
      7583 MEMB     61       DOPE     C210     CEL1    -0.150000       12.0110           0
      7584 MEMB     61       DOPE     H10R     HEL1     0.150000       1.00800           0
      7585 MEMB     61       DOPE     C211     CTL2    -0.180000       12.0110           0
      7586 MEMB     61       DOPE     H11R     HAL2     0.900000E-01   1.00800           0
      7587 MEMB     61       DOPE     H11S     HAL2     0.900000E-01   1.00800           0
      7588 MEMB     61       DOPE     C212     CTL2    -0.180000       12.0110           0
      7589 MEMB     61       DOPE     H12R     HAL2     0.900000E-01   1.00800           0
      7590 MEMB     61       DOPE     H12S     HAL2     0.900000E-01   1.00800           0
      7591 MEMB     61       DOPE     C213     CTL2    -0.180000       12.0110           0
      7592 MEMB     61       DOPE     H13R     HAL2     0.900000E-01   1.00800           0
      7593 MEMB     61       DOPE     H13S     HAL2     0.900000E-01   1.00800           0
      7594 MEMB     61       DOPE     C214     CTL2    -0.180000       12.0110           0
      7595 MEMB     61       DOPE     H14R     HAL2     0.900000E-01   1.00800           0
      7596 MEMB     61       DOPE     H14S     HAL2     0.900000E-01   1.00800           0
      7597 MEMB     61       DOPE     C215     CTL2    -0.180000       12.0110           0
      7598 MEMB     61       DOPE     H15R     HAL2     0.900000E-01   1.00800           0
      7599 MEMB     61       DOPE     H15S     HAL2     0.900000E-01   1.00800           0
      7600 MEMB     61       DOPE     C216     CTL2    -0.180000       12.0110           0
      7601 MEMB     61       DOPE     H16R     HAL2     0.900000E-01   1.00800           0
      7602 MEMB     61       DOPE     H16S     HAL2     0.900000E-01   1.00800           0
      7603 MEMB     61       DOPE     C217     CTL2    -0.180000       12.0110           0
      7604 MEMB     61       DOPE     H17R     HAL2     0.900000E-01   1.00800           0
      7605 MEMB     61       DOPE     H17S     HAL2     0.900000E-01   1.00800           0
      7606 MEMB     61       DOPE     C218     CTL3    -0.270000       12.0110           0
      7607 MEMB     61       DOPE     H18R     HAL3     0.900000E-01   1.00800           0
      7608 MEMB     61       DOPE     H18S     HAL3     0.900000E-01   1.00800           0
      7609 MEMB     61       DOPE     H18T     HAL3     0.900000E-01   1.00800           0
      7610 MEMB     61       DOPE     C33      CTL2    -0.180000       12.0110           0
      7611 MEMB     61       DOPE     H3X      HAL2     0.900000E-01   1.00800           0
      7612 MEMB     61       DOPE     H3Y      HAL2     0.900000E-01   1.00800           0
      7613 MEMB     61       DOPE     C34      CTL2    -0.180000       12.0110           0
      7614 MEMB     61       DOPE     H4X      HAL2     0.900000E-01   1.00800           0
      7615 MEMB     61       DOPE     H4Y      HAL2     0.900000E-01   1.00800           0
      7616 MEMB     61       DOPE     C35      CTL2    -0.180000       12.0110           0
      7617 MEMB     61       DOPE     H5X      HAL2     0.900000E-01   1.00800           0
      7618 MEMB     61       DOPE     H5Y      HAL2     0.900000E-01   1.00800           0
      7619 MEMB     61       DOPE     C36      CTL2    -0.180000       12.0110           0
      7620 MEMB     61       DOPE     H6X      HAL2     0.900000E-01   1.00800           0
      7621 MEMB     61       DOPE     H6Y      HAL2     0.900000E-01   1.00800           0
      7622 MEMB     61       DOPE     C37      CTL2    -0.180000       12.0110           0
      7623 MEMB     61       DOPE     H7X      HAL2     0.900000E-01   1.00800           0
      7624 MEMB     61       DOPE     H7Y      HAL2     0.900000E-01   1.00800           0
      7625 MEMB     61       DOPE     C38      CTL2    -0.180000       12.0110           0
      7626 MEMB     61       DOPE     H8X      HAL2     0.900000E-01   1.00800           0
      7627 MEMB     61       DOPE     H8Y      HAL2     0.900000E-01   1.00800           0
      7628 MEMB     61       DOPE     C39      CEL1    -0.150000       12.0110           0
      7629 MEMB     61       DOPE     H9X      HEL1     0.150000       1.00800           0
      7630 MEMB     61       DOPE     C310     CEL1    -0.150000       12.0110           0
      7631 MEMB     61       DOPE     H10X     HEL1     0.150000       1.00800           0
      7632 MEMB     61       DOPE     C311     CTL2    -0.180000       12.0110           0
      7633 MEMB     61       DOPE     H11X     HAL2     0.900000E-01   1.00800           0
      7634 MEMB     61       DOPE     H11Y     HAL2     0.900000E-01   1.00800           0
      7635 MEMB     61       DOPE     C312     CTL2    -0.180000       12.0110           0
      7636 MEMB     61       DOPE     H12X     HAL2     0.900000E-01   1.00800           0
      7637 MEMB     61       DOPE     H12Y     HAL2     0.900000E-01   1.00800           0
      7638 MEMB     61       DOPE     C313     CTL2    -0.180000       12.0110           0
      7639 MEMB     61       DOPE     H13X     HAL2     0.900000E-01   1.00800           0
      7640 MEMB     61       DOPE     H13Y     HAL2     0.900000E-01   1.00800           0
      7641 MEMB     61       DOPE     C314     CTL2    -0.180000       12.0110           0
      7642 MEMB     61       DOPE     H14X     HAL2     0.900000E-01   1.00800           0
      7643 MEMB     61       DOPE     H14Y     HAL2     0.900000E-01   1.00800           0
      7644 MEMB     61       DOPE     C315     CTL2    -0.180000       12.0110           0
      7645 MEMB     61       DOPE     H15X     HAL2     0.900000E-01   1.00800           0
      7646 MEMB     61       DOPE     H15Y     HAL2     0.900000E-01   1.00800           0
      7647 MEMB     61       DOPE     C316     CTL2    -0.180000       12.0110           0
      7648 MEMB     61       DOPE     H16X     HAL2     0.900000E-01   1.00800           0
      7649 MEMB     61       DOPE     H16Y     HAL2     0.900000E-01   1.00800           0
      7650 MEMB     61       DOPE     C317     CTL2    -0.180000       12.0110           0
      7651 MEMB     61       DOPE     H17X     HAL2     0.900000E-01   1.00800           0
      7652 MEMB     61       DOPE     H17Y     HAL2     0.900000E-01   1.00800           0
      7653 MEMB     61       DOPE     C318     CTL3    -0.270000       12.0110           0
      7654 MEMB     61       DOPE     H18X     HAL3     0.900000E-01   1.00800           0
      7655 MEMB     61       DOPE     H18Y     HAL3     0.900000E-01   1.00800           0
      7656 MEMB     61       DOPE     H18Z     HAL3     0.900000E-01   1.00800           0
      7657 MEMB     62       DOPC     N        NTL     -0.600000       14.0070           0
      7658 MEMB     62       DOPC     C12      CTL2    -0.100000       12.0110           0
      7659 MEMB     62       DOPC     H12A     HL       0.250000       1.00800           0
      7660 MEMB     62       DOPC     H12B     HL       0.250000       1.00800           0
      7661 MEMB     62       DOPC     C13      CTL5    -0.350000       12.0110           0
      7662 MEMB     62       DOPC     H13A     HL       0.250000       1.00800           0
      7663 MEMB     62       DOPC     H13B     HL       0.250000       1.00800           0
      7664 MEMB     62       DOPC     H13C     HL       0.250000       1.00800           0
      7665 MEMB     62       DOPC     C14      CTL5    -0.350000       12.0110           0
      7666 MEMB     62       DOPC     H14A     HL       0.250000       1.00800           0
      7667 MEMB     62       DOPC     H14B     HL       0.250000       1.00800           0
      7668 MEMB     62       DOPC     H14C     HL       0.250000       1.00800           0
      7669 MEMB     62       DOPC     C15      CTL5    -0.350000       12.0110           0
      7670 MEMB     62       DOPC     H15A     HL       0.250000       1.00800           0
      7671 MEMB     62       DOPC     H15B     HL       0.250000       1.00800           0
      7672 MEMB     62       DOPC     H15C     HL       0.250000       1.00800           0
      7673 MEMB     62       DOPC     C11      CTL2    -0.800000E-01   12.0110           0
      7674 MEMB     62       DOPC     H11A     HAL2     0.900000E-01   1.00800           0
      7675 MEMB     62       DOPC     H11B     HAL2     0.900000E-01   1.00800           0
      7676 MEMB     62       DOPC     P        PL        1.50000       30.9740           0
      7677 MEMB     62       DOPC     O13      O2L     -0.780000       15.9994           0
      7678 MEMB     62       DOPC     O14      O2L     -0.780000       15.9994           0
      7679 MEMB     62       DOPC     O12      OSLP    -0.570000       15.9994           0
      7680 MEMB     62       DOPC     O11      OSLP    -0.570000       15.9994           0
      7681 MEMB     62       DOPC     C1       CTL2    -0.800000E-01   12.0110           0
      7682 MEMB     62       DOPC     HA       HAL2     0.900000E-01   1.00800           0
      7683 MEMB     62       DOPC     HB       HAL2     0.900000E-01   1.00800           0
      7684 MEMB     62       DOPC     C2       CTL1     0.170000       12.0110           0
      7685 MEMB     62       DOPC     HS       HAL1     0.900000E-01   1.00800           0
      7686 MEMB     62       DOPC     O21      OSL     -0.490000       15.9994           0
      7687 MEMB     62       DOPC     C21      CL       0.900000       12.0110           0
      7688 MEMB     62       DOPC     O22      OBL     -0.630000       15.9994           0
      7689 MEMB     62       DOPC     C22      CTL2    -0.220000       12.0110           0
      7690 MEMB     62       DOPC     H2R      HAL2     0.900000E-01   1.00800           0
      7691 MEMB     62       DOPC     H2S      HAL2     0.900000E-01   1.00800           0
      7692 MEMB     62       DOPC     C3       CTL2     0.800000E-01   12.0110           0
      7693 MEMB     62       DOPC     HX       HAL2     0.900000E-01   1.00800           0
      7694 MEMB     62       DOPC     HY       HAL2     0.900000E-01   1.00800           0
      7695 MEMB     62       DOPC     O31      OSL     -0.490000       15.9994           0
      7696 MEMB     62       DOPC     C31      CL       0.900000       12.0110           0
      7697 MEMB     62       DOPC     O32      OBL     -0.630000       15.9994           0
      7698 MEMB     62       DOPC     C32      CTL2    -0.220000       12.0110           0
      7699 MEMB     62       DOPC     H2X      HAL2     0.900000E-01   1.00800           0
      7700 MEMB     62       DOPC     H2Y      HAL2     0.900000E-01   1.00800           0
      7701 MEMB     62       DOPC     C23      CTL2    -0.180000       12.0110           0
      7702 MEMB     62       DOPC     H3R      HAL2     0.900000E-01   1.00800           0
      7703 MEMB     62       DOPC     H3S      HAL2     0.900000E-01   1.00800           0
      7704 MEMB     62       DOPC     C24      CTL2    -0.180000       12.0110           0
      7705 MEMB     62       DOPC     H4R      HAL2     0.900000E-01   1.00800           0
      7706 MEMB     62       DOPC     H4S      HAL2     0.900000E-01   1.00800           0
      7707 MEMB     62       DOPC     C25      CTL2    -0.180000       12.0110           0
      7708 MEMB     62       DOPC     H5R      HAL2     0.900000E-01   1.00800           0
      7709 MEMB     62       DOPC     H5S      HAL2     0.900000E-01   1.00800           0
      7710 MEMB     62       DOPC     C26      CTL2    -0.180000       12.0110           0
      7711 MEMB     62       DOPC     H6R      HAL2     0.900000E-01   1.00800           0
      7712 MEMB     62       DOPC     H6S      HAL2     0.900000E-01   1.00800           0
      7713 MEMB     62       DOPC     C27      CTL2    -0.180000       12.0110           0
      7714 MEMB     62       DOPC     H7R      HAL2     0.900000E-01   1.00800           0
      7715 MEMB     62       DOPC     H7S      HAL2     0.900000E-01   1.00800           0
      7716 MEMB     62       DOPC     C28      CTL2    -0.180000       12.0110           0
      7717 MEMB     62       DOPC     H8R      HAL2     0.900000E-01   1.00800           0
      7718 MEMB     62       DOPC     H8S      HAL2     0.900000E-01   1.00800           0
      7719 MEMB     62       DOPC     C29      CEL1    -0.150000       12.0110           0
      7720 MEMB     62       DOPC     H9R      HEL1     0.150000       1.00800           0
      7721 MEMB     62       DOPC     C210     CEL1    -0.150000       12.0110           0
      7722 MEMB     62       DOPC     H10R     HEL1     0.150000       1.00800           0
      7723 MEMB     62       DOPC     C211     CTL2    -0.180000       12.0110           0
      7724 MEMB     62       DOPC     H11R     HAL2     0.900000E-01   1.00800           0
      7725 MEMB     62       DOPC     H11S     HAL2     0.900000E-01   1.00800           0
      7726 MEMB     62       DOPC     C212     CTL2    -0.180000       12.0110           0
      7727 MEMB     62       DOPC     H12R     HAL2     0.900000E-01   1.00800           0
      7728 MEMB     62       DOPC     H12S     HAL2     0.900000E-01   1.00800           0
      7729 MEMB     62       DOPC     C213     CTL2    -0.180000       12.0110           0
      7730 MEMB     62       DOPC     H13R     HAL2     0.900000E-01   1.00800           0
      7731 MEMB     62       DOPC     H13S     HAL2     0.900000E-01   1.00800           0
      7732 MEMB     62       DOPC     C214     CTL2    -0.180000       12.0110           0
      7733 MEMB     62       DOPC     H14R     HAL2     0.900000E-01   1.00800           0
      7734 MEMB     62       DOPC     H14S     HAL2     0.900000E-01   1.00800           0
      7735 MEMB     62       DOPC     C215     CTL2    -0.180000       12.0110           0
      7736 MEMB     62       DOPC     H15R     HAL2     0.900000E-01   1.00800           0
      7737 MEMB     62       DOPC     H15S     HAL2     0.900000E-01   1.00800           0
      7738 MEMB     62       DOPC     C216     CTL2    -0.180000       12.0110           0
      7739 MEMB     62       DOPC     H16R     HAL2     0.900000E-01   1.00800           0
      7740 MEMB     62       DOPC     H16S     HAL2     0.900000E-01   1.00800           0
      7741 MEMB     62       DOPC     C217     CTL2    -0.180000       12.0110           0
      7742 MEMB     62       DOPC     H17R     HAL2     0.900000E-01   1.00800           0
      7743 MEMB     62       DOPC     H17S     HAL2     0.900000E-01   1.00800           0
      7744 MEMB     62       DOPC     C218     CTL3    -0.270000       12.0110           0
      7745 MEMB     62       DOPC     H18R     HAL3     0.900000E-01   1.00800           0
      7746 MEMB     62       DOPC     H18S     HAL3     0.900000E-01   1.00800           0
      7747 MEMB     62       DOPC     H18T     HAL3     0.900000E-01   1.00800           0
      7748 MEMB     62       DOPC     C33      CTL2    -0.180000       12.0110           0
      7749 MEMB     62       DOPC     H3X      HAL2     0.900000E-01   1.00800           0
      7750 MEMB     62       DOPC     H3Y      HAL2     0.900000E-01   1.00800           0
      7751 MEMB     62       DOPC     C34      CTL2    -0.180000       12.0110           0
      7752 MEMB     62       DOPC     H4X      HAL2     0.900000E-01   1.00800           0
      7753 MEMB     62       DOPC     H4Y      HAL2     0.900000E-01   1.00800           0
      7754 MEMB     62       DOPC     C35      CTL2    -0.180000       12.0110           0
      7755 MEMB     62       DOPC     H5X      HAL2     0.900000E-01   1.00800           0
      7756 MEMB     62       DOPC     H5Y      HAL2     0.900000E-01   1.00800           0
      7757 MEMB     62       DOPC     C36      CTL2    -0.180000       12.0110           0
      7758 MEMB     62       DOPC     H6X      HAL2     0.900000E-01   1.00800           0
      7759 MEMB     62       DOPC     H6Y      HAL2     0.900000E-01   1.00800           0
      7760 MEMB     62       DOPC     C37      CTL2    -0.180000       12.0110           0
      7761 MEMB     62       DOPC     H7X      HAL2     0.900000E-01   1.00800           0
      7762 MEMB     62       DOPC     H7Y      HAL2     0.900000E-01   1.00800           0
      7763 MEMB     62       DOPC     C38      CTL2    -0.180000       12.0110           0
      7764 MEMB     62       DOPC     H8X      HAL2     0.900000E-01   1.00800           0
      7765 MEMB     62       DOPC     H8Y      HAL2     0.900000E-01   1.00800           0
      7766 MEMB     62       DOPC     C39      CEL1    -0.150000       12.0110           0
      7767 MEMB     62       DOPC     H9X      HEL1     0.150000       1.00800           0
      7768 MEMB     62       DOPC     C310     CEL1    -0.150000       12.0110           0
      7769 MEMB     62       DOPC     H10X     HEL1     0.150000       1.00800           0
      7770 MEMB     62       DOPC     C311     CTL2    -0.180000       12.0110           0
      7771 MEMB     62       DOPC     H11X     HAL2     0.900000E-01   1.00800           0
      7772 MEMB     62       DOPC     H11Y     HAL2     0.900000E-01   1.00800           0
      7773 MEMB     62       DOPC     C312     CTL2    -0.180000       12.0110           0
      7774 MEMB     62       DOPC     H12X     HAL2     0.900000E-01   1.00800           0
      7775 MEMB     62       DOPC     H12Y     HAL2     0.900000E-01   1.00800           0
      7776 MEMB     62       DOPC     C313     CTL2    -0.180000       12.0110           0
      7777 MEMB     62       DOPC     H13X     HAL2     0.900000E-01   1.00800           0
      7778 MEMB     62       DOPC     H13Y     HAL2     0.900000E-01   1.00800           0
      7779 MEMB     62       DOPC     C314     CTL2    -0.180000       12.0110           0
      7780 MEMB     62       DOPC     H14X     HAL2     0.900000E-01   1.00800           0
      7781 MEMB     62       DOPC     H14Y     HAL2     0.900000E-01   1.00800           0
      7782 MEMB     62       DOPC     C315     CTL2    -0.180000       12.0110           0
      7783 MEMB     62       DOPC     H15X     HAL2     0.900000E-01   1.00800           0
      7784 MEMB     62       DOPC     H15Y     HAL2     0.900000E-01   1.00800           0
      7785 MEMB     62       DOPC     C316     CTL2    -0.180000       12.0110           0
      7786 MEMB     62       DOPC     H16X     HAL2     0.900000E-01   1.00800           0
      7787 MEMB     62       DOPC     H16Y     HAL2     0.900000E-01   1.00800           0
      7788 MEMB     62       DOPC     C317     CTL2    -0.180000       12.0110           0
      7789 MEMB     62       DOPC     H17X     HAL2     0.900000E-01   1.00800           0
      7790 MEMB     62       DOPC     H17Y     HAL2     0.900000E-01   1.00800           0
      7791 MEMB     62       DOPC     C318     CTL3    -0.270000       12.0110           0
      7792 MEMB     62       DOPC     H18X     HAL3     0.900000E-01   1.00800           0
      7793 MEMB     62       DOPC     H18Y     HAL3     0.900000E-01   1.00800           0
      7794 MEMB     62       DOPC     H18Z     HAL3     0.900000E-01   1.00800           0
      7795 MEMB     63       DOPC     N        NTL     -0.600000       14.0070           0
      7796 MEMB     63       DOPC     C12      CTL2    -0.100000       12.0110           0
      7797 MEMB     63       DOPC     H12A     HL       0.250000       1.00800           0
      7798 MEMB     63       DOPC     H12B     HL       0.250000       1.00800           0
      7799 MEMB     63       DOPC     C13      CTL5    -0.350000       12.0110           0
      7800 MEMB     63       DOPC     H13A     HL       0.250000       1.00800           0
      7801 MEMB     63       DOPC     H13B     HL       0.250000       1.00800           0
      7802 MEMB     63       DOPC     H13C     HL       0.250000       1.00800           0
      7803 MEMB     63       DOPC     C14      CTL5    -0.350000       12.0110           0
      7804 MEMB     63       DOPC     H14A     HL       0.250000       1.00800           0
      7805 MEMB     63       DOPC     H14B     HL       0.250000       1.00800           0
      7806 MEMB     63       DOPC     H14C     HL       0.250000       1.00800           0
      7807 MEMB     63       DOPC     C15      CTL5    -0.350000       12.0110           0
      7808 MEMB     63       DOPC     H15A     HL       0.250000       1.00800           0
      7809 MEMB     63       DOPC     H15B     HL       0.250000       1.00800           0
      7810 MEMB     63       DOPC     H15C     HL       0.250000       1.00800           0
      7811 MEMB     63       DOPC     C11      CTL2    -0.800000E-01   12.0110           0
      7812 MEMB     63       DOPC     H11A     HAL2     0.900000E-01   1.00800           0
      7813 MEMB     63       DOPC     H11B     HAL2     0.900000E-01   1.00800           0
      7814 MEMB     63       DOPC     P        PL        1.50000       30.9740           0
      7815 MEMB     63       DOPC     O13      O2L     -0.780000       15.9994           0
      7816 MEMB     63       DOPC     O14      O2L     -0.780000       15.9994           0
      7817 MEMB     63       DOPC     O12      OSLP    -0.570000       15.9994           0
      7818 MEMB     63       DOPC     O11      OSLP    -0.570000       15.9994           0
      7819 MEMB     63       DOPC     C1       CTL2    -0.800000E-01   12.0110           0
      7820 MEMB     63       DOPC     HA       HAL2     0.900000E-01   1.00800           0
      7821 MEMB     63       DOPC     HB       HAL2     0.900000E-01   1.00800           0
      7822 MEMB     63       DOPC     C2       CTL1     0.170000       12.0110           0
      7823 MEMB     63       DOPC     HS       HAL1     0.900000E-01   1.00800           0
      7824 MEMB     63       DOPC     O21      OSL     -0.490000       15.9994           0
      7825 MEMB     63       DOPC     C21      CL       0.900000       12.0110           0
      7826 MEMB     63       DOPC     O22      OBL     -0.630000       15.9994           0
      7827 MEMB     63       DOPC     C22      CTL2    -0.220000       12.0110           0
      7828 MEMB     63       DOPC     H2R      HAL2     0.900000E-01   1.00800           0
      7829 MEMB     63       DOPC     H2S      HAL2     0.900000E-01   1.00800           0
      7830 MEMB     63       DOPC     C3       CTL2     0.800000E-01   12.0110           0
      7831 MEMB     63       DOPC     HX       HAL2     0.900000E-01   1.00800           0
      7832 MEMB     63       DOPC     HY       HAL2     0.900000E-01   1.00800           0
      7833 MEMB     63       DOPC     O31      OSL     -0.490000       15.9994           0
      7834 MEMB     63       DOPC     C31      CL       0.900000       12.0110           0
      7835 MEMB     63       DOPC     O32      OBL     -0.630000       15.9994           0
      7836 MEMB     63       DOPC     C32      CTL2    -0.220000       12.0110           0
      7837 MEMB     63       DOPC     H2X      HAL2     0.900000E-01   1.00800           0
      7838 MEMB     63       DOPC     H2Y      HAL2     0.900000E-01   1.00800           0
      7839 MEMB     63       DOPC     C23      CTL2    -0.180000       12.0110           0
      7840 MEMB     63       DOPC     H3R      HAL2     0.900000E-01   1.00800           0
      7841 MEMB     63       DOPC     H3S      HAL2     0.900000E-01   1.00800           0
      7842 MEMB     63       DOPC     C24      CTL2    -0.180000       12.0110           0
      7843 MEMB     63       DOPC     H4R      HAL2     0.900000E-01   1.00800           0
      7844 MEMB     63       DOPC     H4S      HAL2     0.900000E-01   1.00800           0
      7845 MEMB     63       DOPC     C25      CTL2    -0.180000       12.0110           0
      7846 MEMB     63       DOPC     H5R      HAL2     0.900000E-01   1.00800           0
      7847 MEMB     63       DOPC     H5S      HAL2     0.900000E-01   1.00800           0
      7848 MEMB     63       DOPC     C26      CTL2    -0.180000       12.0110           0
      7849 MEMB     63       DOPC     H6R      HAL2     0.900000E-01   1.00800           0
      7850 MEMB     63       DOPC     H6S      HAL2     0.900000E-01   1.00800           0
      7851 MEMB     63       DOPC     C27      CTL2    -0.180000       12.0110           0
      7852 MEMB     63       DOPC     H7R      HAL2     0.900000E-01   1.00800           0
      7853 MEMB     63       DOPC     H7S      HAL2     0.900000E-01   1.00800           0
      7854 MEMB     63       DOPC     C28      CTL2    -0.180000       12.0110           0
      7855 MEMB     63       DOPC     H8R      HAL2     0.900000E-01   1.00800           0
      7856 MEMB     63       DOPC     H8S      HAL2     0.900000E-01   1.00800           0
      7857 MEMB     63       DOPC     C29      CEL1    -0.150000       12.0110           0
      7858 MEMB     63       DOPC     H9R      HEL1     0.150000       1.00800           0
      7859 MEMB     63       DOPC     C210     CEL1    -0.150000       12.0110           0
      7860 MEMB     63       DOPC     H10R     HEL1     0.150000       1.00800           0
      7861 MEMB     63       DOPC     C211     CTL2    -0.180000       12.0110           0
      7862 MEMB     63       DOPC     H11R     HAL2     0.900000E-01   1.00800           0
      7863 MEMB     63       DOPC     H11S     HAL2     0.900000E-01   1.00800           0
      7864 MEMB     63       DOPC     C212     CTL2    -0.180000       12.0110           0
      7865 MEMB     63       DOPC     H12R     HAL2     0.900000E-01   1.00800           0
      7866 MEMB     63       DOPC     H12S     HAL2     0.900000E-01   1.00800           0
      7867 MEMB     63       DOPC     C213     CTL2    -0.180000       12.0110           0
      7868 MEMB     63       DOPC     H13R     HAL2     0.900000E-01   1.00800           0
      7869 MEMB     63       DOPC     H13S     HAL2     0.900000E-01   1.00800           0
      7870 MEMB     63       DOPC     C214     CTL2    -0.180000       12.0110           0
      7871 MEMB     63       DOPC     H14R     HAL2     0.900000E-01   1.00800           0
      7872 MEMB     63       DOPC     H14S     HAL2     0.900000E-01   1.00800           0
      7873 MEMB     63       DOPC     C215     CTL2    -0.180000       12.0110           0
      7874 MEMB     63       DOPC     H15R     HAL2     0.900000E-01   1.00800           0
      7875 MEMB     63       DOPC     H15S     HAL2     0.900000E-01   1.00800           0
      7876 MEMB     63       DOPC     C216     CTL2    -0.180000       12.0110           0
      7877 MEMB     63       DOPC     H16R     HAL2     0.900000E-01   1.00800           0
      7878 MEMB     63       DOPC     H16S     HAL2     0.900000E-01   1.00800           0
      7879 MEMB     63       DOPC     C217     CTL2    -0.180000       12.0110           0
      7880 MEMB     63       DOPC     H17R     HAL2     0.900000E-01   1.00800           0
      7881 MEMB     63       DOPC     H17S     HAL2     0.900000E-01   1.00800           0
      7882 MEMB     63       DOPC     C218     CTL3    -0.270000       12.0110           0
      7883 MEMB     63       DOPC     H18R     HAL3     0.900000E-01   1.00800           0
      7884 MEMB     63       DOPC     H18S     HAL3     0.900000E-01   1.00800           0
      7885 MEMB     63       DOPC     H18T     HAL3     0.900000E-01   1.00800           0
      7886 MEMB     63       DOPC     C33      CTL2    -0.180000       12.0110           0
      7887 MEMB     63       DOPC     H3X      HAL2     0.900000E-01   1.00800           0
      7888 MEMB     63       DOPC     H3Y      HAL2     0.900000E-01   1.00800           0
      7889 MEMB     63       DOPC     C34      CTL2    -0.180000       12.0110           0
      7890 MEMB     63       DOPC     H4X      HAL2     0.900000E-01   1.00800           0
      7891 MEMB     63       DOPC     H4Y      HAL2     0.900000E-01   1.00800           0
      7892 MEMB     63       DOPC     C35      CTL2    -0.180000       12.0110           0
      7893 MEMB     63       DOPC     H5X      HAL2     0.900000E-01   1.00800           0
      7894 MEMB     63       DOPC     H5Y      HAL2     0.900000E-01   1.00800           0
      7895 MEMB     63       DOPC     C36      CTL2    -0.180000       12.0110           0
      7896 MEMB     63       DOPC     H6X      HAL2     0.900000E-01   1.00800           0
      7897 MEMB     63       DOPC     H6Y      HAL2     0.900000E-01   1.00800           0
      7898 MEMB     63       DOPC     C37      CTL2    -0.180000       12.0110           0
      7899 MEMB     63       DOPC     H7X      HAL2     0.900000E-01   1.00800           0
      7900 MEMB     63       DOPC     H7Y      HAL2     0.900000E-01   1.00800           0
      7901 MEMB     63       DOPC     C38      CTL2    -0.180000       12.0110           0
      7902 MEMB     63       DOPC     H8X      HAL2     0.900000E-01   1.00800           0
      7903 MEMB     63       DOPC     H8Y      HAL2     0.900000E-01   1.00800           0
      7904 MEMB     63       DOPC     C39      CEL1    -0.150000       12.0110           0
      7905 MEMB     63       DOPC     H9X      HEL1     0.150000       1.00800           0
      7906 MEMB     63       DOPC     C310     CEL1    -0.150000       12.0110           0
      7907 MEMB     63       DOPC     H10X     HEL1     0.150000       1.00800           0
      7908 MEMB     63       DOPC     C311     CTL2    -0.180000       12.0110           0
      7909 MEMB     63       DOPC     H11X     HAL2     0.900000E-01   1.00800           0
      7910 MEMB     63       DOPC     H11Y     HAL2     0.900000E-01   1.00800           0
      7911 MEMB     63       DOPC     C312     CTL2    -0.180000       12.0110           0
      7912 MEMB     63       DOPC     H12X     HAL2     0.900000E-01   1.00800           0
      7913 MEMB     63       DOPC     H12Y     HAL2     0.900000E-01   1.00800           0
      7914 MEMB     63       DOPC     C313     CTL2    -0.180000       12.0110           0
      7915 MEMB     63       DOPC     H13X     HAL2     0.900000E-01   1.00800           0
      7916 MEMB     63       DOPC     H13Y     HAL2     0.900000E-01   1.00800           0
      7917 MEMB     63       DOPC     C314     CTL2    -0.180000       12.0110           0
      7918 MEMB     63       DOPC     H14X     HAL2     0.900000E-01   1.00800           0
      7919 MEMB     63       DOPC     H14Y     HAL2     0.900000E-01   1.00800           0
      7920 MEMB     63       DOPC     C315     CTL2    -0.180000       12.0110           0
      7921 MEMB     63       DOPC     H15X     HAL2     0.900000E-01   1.00800           0
      7922 MEMB     63       DOPC     H15Y     HAL2     0.900000E-01   1.00800           0
      7923 MEMB     63       DOPC     C316     CTL2    -0.180000       12.0110           0
      7924 MEMB     63       DOPC     H16X     HAL2     0.900000E-01   1.00800           0
      7925 MEMB     63       DOPC     H16Y     HAL2     0.900000E-01   1.00800           0
      7926 MEMB     63       DOPC     C317     CTL2    -0.180000       12.0110           0
      7927 MEMB     63       DOPC     H17X     HAL2     0.900000E-01   1.00800           0
      7928 MEMB     63       DOPC     H17Y     HAL2     0.900000E-01   1.00800           0
      7929 MEMB     63       DOPC     C318     CTL3    -0.270000       12.0110           0
      7930 MEMB     63       DOPC     H18X     HAL3     0.900000E-01   1.00800           0
      7931 MEMB     63       DOPC     H18Y     HAL3     0.900000E-01   1.00800           0
      7932 MEMB     63       DOPC     H18Z     HAL3     0.900000E-01   1.00800           0
      7933 MEMB     64       CHL1     C3       CRL1     0.140000       12.0110           0
      7934 MEMB     64       CHL1     H3       HGA1     0.900000E-01   1.00800           0
      7935 MEMB     64       CHL1     O3       OHL     -0.660000       15.9994           0
      7936 MEMB     64       CHL1     H3'      HOL      0.430000       1.00800           0
      7937 MEMB     64       CHL1     C4       CRL2    -0.180000       12.0110           0
      7938 MEMB     64       CHL1     H4A      HGA2     0.900000E-01   1.00800           0
      7939 MEMB     64       CHL1     H4B      HGA2     0.900000E-01   1.00800           0
      7940 MEMB     64       CHL1     C5       CEL1      0.00000       12.0110           0
      7941 MEMB     64       CHL1     C6       CEL1    -0.150000       12.0110           0
      7942 MEMB     64       CHL1     H6       HEL1     0.150000       1.00800           0
      7943 MEMB     64       CHL1     C7       CRL2    -0.180000       12.0110           0
      7944 MEMB     64       CHL1     H7A      HGA2     0.900000E-01   1.00800           0
      7945 MEMB     64       CHL1     H7B      HGA2     0.900000E-01   1.00800           0
      7946 MEMB     64       CHL1     C8       CRL1    -0.900000E-01   12.0110           0
      7947 MEMB     64       CHL1     H8       HGA1     0.900000E-01   1.00800           0
      7948 MEMB     64       CHL1     C14      CRL1    -0.900000E-01   12.0110           0
      7949 MEMB     64       CHL1     H14      HGA1     0.900000E-01   1.00800           0
      7950 MEMB     64       CHL1     C15      CRL2    -0.180000       12.0110           0
      7951 MEMB     64       CHL1     H15A     HGA2     0.900000E-01   1.00800           0
      7952 MEMB     64       CHL1     H15B     HGA2     0.900000E-01   1.00800           0
      7953 MEMB     64       CHL1     C16      CRL2    -0.180000       12.0110           0
      7954 MEMB     64       CHL1     H16A     HGA2     0.900000E-01   1.00800           0
      7955 MEMB     64       CHL1     H16B     HGA2     0.900000E-01   1.00800           0
      7956 MEMB     64       CHL1     C17      CRL1    -0.900000E-01   12.0110           0
      7957 MEMB     64       CHL1     H17      HGA1     0.900000E-01   1.00800           0
      7958 MEMB     64       CHL1     C13      CRL1      0.00000       12.0110           0
      7959 MEMB     64       CHL1     C18      CTL3    -0.270000       12.0110           0
      7960 MEMB     64       CHL1     H18A     HAL3     0.900000E-01   1.00800           0
      7961 MEMB     64       CHL1     H18B     HAL3     0.900000E-01   1.00800           0
      7962 MEMB     64       CHL1     H18C     HAL3     0.900000E-01   1.00800           0
      7963 MEMB     64       CHL1     C12      CRL2    -0.180000       12.0110           0
      7964 MEMB     64       CHL1     H12A     HGA2     0.900000E-01   1.00800           0
      7965 MEMB     64       CHL1     H12B     HGA2     0.900000E-01   1.00800           0
      7966 MEMB     64       CHL1     C11      CRL2    -0.180000       12.0110           0
      7967 MEMB     64       CHL1     H11A     HGA2     0.900000E-01   1.00800           0
      7968 MEMB     64       CHL1     H11B     HGA2     0.900000E-01   1.00800           0
      7969 MEMB     64       CHL1     C9       CRL1    -0.900000E-01   12.0110           0
      7970 MEMB     64       CHL1     H9       HGA1     0.900000E-01   1.00800           0
      7971 MEMB     64       CHL1     C10      CRL1      0.00000       12.0110           0
      7972 MEMB     64       CHL1     C19      CTL3    -0.270000       12.0110           0
      7973 MEMB     64       CHL1     H19A     HAL3     0.900000E-01   1.00800           0
      7974 MEMB     64       CHL1     H19B     HAL3     0.900000E-01   1.00800           0
      7975 MEMB     64       CHL1     H19C     HAL3     0.900000E-01   1.00800           0
      7976 MEMB     64       CHL1     C1       CRL2    -0.180000       12.0110           0
      7977 MEMB     64       CHL1     H1A      HGA2     0.900000E-01   1.00800           0
      7978 MEMB     64       CHL1     H1B      HGA2     0.900000E-01   1.00800           0
      7979 MEMB     64       CHL1     C2       CRL2    -0.180000       12.0110           0
      7980 MEMB     64       CHL1     H2A      HGA2     0.900000E-01   1.00800           0
      7981 MEMB     64       CHL1     H2B      HGA2     0.900000E-01   1.00800           0
      7982 MEMB     64       CHL1     C20      CTL1    -0.900000E-01   12.0110           0
      7983 MEMB     64       CHL1     H20      HAL1     0.900000E-01   1.00800           0
      7984 MEMB     64       CHL1     C21      CTL3    -0.270000       12.0110           0
      7985 MEMB     64       CHL1     H21A     HAL3     0.900000E-01   1.00800           0
      7986 MEMB     64       CHL1     H21B     HAL3     0.900000E-01   1.00800           0
      7987 MEMB     64       CHL1     H21C     HAL3     0.900000E-01   1.00800           0
      7988 MEMB     64       CHL1     C22      CTL2    -0.180000       12.0110           0
      7989 MEMB     64       CHL1     H22A     HAL2     0.900000E-01   1.00800           0
      7990 MEMB     64       CHL1     H22B     HAL2     0.900000E-01   1.00800           0
      7991 MEMB     64       CHL1     C23      CTL2    -0.180000       12.0110           0
      7992 MEMB     64       CHL1     H23A     HAL2     0.900000E-01   1.00800           0
      7993 MEMB     64       CHL1     H23B     HAL2     0.900000E-01   1.00800           0
      7994 MEMB     64       CHL1     C24      CTL2    -0.180000       12.0110           0
      7995 MEMB     64       CHL1     H24A     HAL2     0.900000E-01   1.00800           0
      7996 MEMB     64       CHL1     H24B     HAL2     0.900000E-01   1.00800           0
      7997 MEMB     64       CHL1     C25      CTL1    -0.900000E-01   12.0110           0
      7998 MEMB     64       CHL1     H25      HAL1     0.900000E-01   1.00800           0
      7999 MEMB     64       CHL1     C26      CTL3    -0.270000       12.0110           0
      8000 MEMB     64       CHL1     H26A     HAL3     0.900000E-01   1.00800           0
      8001 MEMB     64       CHL1     H26B     HAL3     0.900000E-01   1.00800           0
      8002 MEMB     64       CHL1     H26C     HAL3     0.900000E-01   1.00800           0
      8003 MEMB     64       CHL1     C27      CTL3    -0.270000       12.0110           0
      8004 MEMB     64       CHL1     H27A     HAL3     0.900000E-01   1.00800           0
      8005 MEMB     64       CHL1     H27B     HAL3     0.900000E-01   1.00800           0
      8006 MEMB     64       CHL1     H27C     HAL3     0.900000E-01   1.00800           0
      8007 MEMB     65       DOPE     N        NH3L    -0.300000       14.0070           0
      8008 MEMB     65       DOPE     HN1      HCL      0.330000       1.00800           0
      8009 MEMB     65       DOPE     HN2      HCL      0.330000       1.00800           0
      8010 MEMB     65       DOPE     HN3      HCL      0.330000       1.00800           0
      8011 MEMB     65       DOPE     C12      CTL2     0.130000       12.0110           0
      8012 MEMB     65       DOPE     H12A     HAL2     0.900000E-01   1.00800           0
      8013 MEMB     65       DOPE     H12B     HAL2     0.900000E-01   1.00800           0
      8014 MEMB     65       DOPE     C11      CTL2    -0.800000E-01   12.0110           0
      8015 MEMB     65       DOPE     H11A     HAL2     0.900000E-01   1.00800           0
      8016 MEMB     65       DOPE     H11B     HAL2     0.900000E-01   1.00800           0
      8017 MEMB     65       DOPE     P        PL        1.50000       30.9740           0
      8018 MEMB     65       DOPE     O13      O2L     -0.780000       15.9994           0
      8019 MEMB     65       DOPE     O14      O2L     -0.780000       15.9994           0
      8020 MEMB     65       DOPE     O11      OSLP    -0.570000       15.9994           0
      8021 MEMB     65       DOPE     O12      OSLP    -0.570000       15.9994           0
      8022 MEMB     65       DOPE     C1       CTL2    -0.800000E-01   12.0110           0
      8023 MEMB     65       DOPE     HA       HAL2     0.900000E-01   1.00800           0
      8024 MEMB     65       DOPE     HB       HAL2     0.900000E-01   1.00800           0
      8025 MEMB     65       DOPE     C2       CTL1     0.170000       12.0110           0
      8026 MEMB     65       DOPE     HS       HAL1     0.900000E-01   1.00800           0
      8027 MEMB     65       DOPE     O21      OSL     -0.490000       15.9994           0
      8028 MEMB     65       DOPE     C21      CL       0.900000       12.0110           0
      8029 MEMB     65       DOPE     O22      OBL     -0.630000       15.9994           0
      8030 MEMB     65       DOPE     C22      CTL2    -0.220000       12.0110           0
      8031 MEMB     65       DOPE     H2R      HAL2     0.900000E-01   1.00800           0
      8032 MEMB     65       DOPE     H2S      HAL2     0.900000E-01   1.00800           0
      8033 MEMB     65       DOPE     C3       CTL2     0.800000E-01   12.0110           0
      8034 MEMB     65       DOPE     HX       HAL2     0.900000E-01   1.00800           0
      8035 MEMB     65       DOPE     HY       HAL2     0.900000E-01   1.00800           0
      8036 MEMB     65       DOPE     O31      OSL     -0.490000       15.9994           0
      8037 MEMB     65       DOPE     C31      CL       0.900000       12.0110           0
      8038 MEMB     65       DOPE     O32      OBL     -0.630000       15.9994           0
      8039 MEMB     65       DOPE     C32      CTL2    -0.220000       12.0110           0
      8040 MEMB     65       DOPE     H2X      HAL2     0.900000E-01   1.00800           0
      8041 MEMB     65       DOPE     H2Y      HAL2     0.900000E-01   1.00800           0
      8042 MEMB     65       DOPE     C23      CTL2    -0.180000       12.0110           0
      8043 MEMB     65       DOPE     H3R      HAL2     0.900000E-01   1.00800           0
      8044 MEMB     65       DOPE     H3S      HAL2     0.900000E-01   1.00800           0
      8045 MEMB     65       DOPE     C24      CTL2    -0.180000       12.0110           0
      8046 MEMB     65       DOPE     H4R      HAL2     0.900000E-01   1.00800           0
      8047 MEMB     65       DOPE     H4S      HAL2     0.900000E-01   1.00800           0
      8048 MEMB     65       DOPE     C25      CTL2    -0.180000       12.0110           0
      8049 MEMB     65       DOPE     H5R      HAL2     0.900000E-01   1.00800           0
      8050 MEMB     65       DOPE     H5S      HAL2     0.900000E-01   1.00800           0
      8051 MEMB     65       DOPE     C26      CTL2    -0.180000       12.0110           0
      8052 MEMB     65       DOPE     H6R      HAL2     0.900000E-01   1.00800           0
      8053 MEMB     65       DOPE     H6S      HAL2     0.900000E-01   1.00800           0
      8054 MEMB     65       DOPE     C27      CTL2    -0.180000       12.0110           0
      8055 MEMB     65       DOPE     H7R      HAL2     0.900000E-01   1.00800           0
      8056 MEMB     65       DOPE     H7S      HAL2     0.900000E-01   1.00800           0
      8057 MEMB     65       DOPE     C28      CTL2    -0.180000       12.0110           0
      8058 MEMB     65       DOPE     H8R      HAL2     0.900000E-01   1.00800           0
      8059 MEMB     65       DOPE     H8S      HAL2     0.900000E-01   1.00800           0
      8060 MEMB     65       DOPE     C29      CEL1    -0.150000       12.0110           0
      8061 MEMB     65       DOPE     H9R      HEL1     0.150000       1.00800           0
      8062 MEMB     65       DOPE     C210     CEL1    -0.150000       12.0110           0
      8063 MEMB     65       DOPE     H10R     HEL1     0.150000       1.00800           0
      8064 MEMB     65       DOPE     C211     CTL2    -0.180000       12.0110           0
      8065 MEMB     65       DOPE     H11R     HAL2     0.900000E-01   1.00800           0
      8066 MEMB     65       DOPE     H11S     HAL2     0.900000E-01   1.00800           0
      8067 MEMB     65       DOPE     C212     CTL2    -0.180000       12.0110           0
      8068 MEMB     65       DOPE     H12R     HAL2     0.900000E-01   1.00800           0
      8069 MEMB     65       DOPE     H12S     HAL2     0.900000E-01   1.00800           0
      8070 MEMB     65       DOPE     C213     CTL2    -0.180000       12.0110           0
      8071 MEMB     65       DOPE     H13R     HAL2     0.900000E-01   1.00800           0
      8072 MEMB     65       DOPE     H13S     HAL2     0.900000E-01   1.00800           0
      8073 MEMB     65       DOPE     C214     CTL2    -0.180000       12.0110           0
      8074 MEMB     65       DOPE     H14R     HAL2     0.900000E-01   1.00800           0
      8075 MEMB     65       DOPE     H14S     HAL2     0.900000E-01   1.00800           0
      8076 MEMB     65       DOPE     C215     CTL2    -0.180000       12.0110           0
      8077 MEMB     65       DOPE     H15R     HAL2     0.900000E-01   1.00800           0
      8078 MEMB     65       DOPE     H15S     HAL2     0.900000E-01   1.00800           0
      8079 MEMB     65       DOPE     C216     CTL2    -0.180000       12.0110           0
      8080 MEMB     65       DOPE     H16R     HAL2     0.900000E-01   1.00800           0
      8081 MEMB     65       DOPE     H16S     HAL2     0.900000E-01   1.00800           0
      8082 MEMB     65       DOPE     C217     CTL2    -0.180000       12.0110           0
      8083 MEMB     65       DOPE     H17R     HAL2     0.900000E-01   1.00800           0
      8084 MEMB     65       DOPE     H17S     HAL2     0.900000E-01   1.00800           0
      8085 MEMB     65       DOPE     C218     CTL3    -0.270000       12.0110           0
      8086 MEMB     65       DOPE     H18R     HAL3     0.900000E-01   1.00800           0
      8087 MEMB     65       DOPE     H18S     HAL3     0.900000E-01   1.00800           0
      8088 MEMB     65       DOPE     H18T     HAL3     0.900000E-01   1.00800           0
      8089 MEMB     65       DOPE     C33      CTL2    -0.180000       12.0110           0
      8090 MEMB     65       DOPE     H3X      HAL2     0.900000E-01   1.00800           0
      8091 MEMB     65       DOPE     H3Y      HAL2     0.900000E-01   1.00800           0
      8092 MEMB     65       DOPE     C34      CTL2    -0.180000       12.0110           0
      8093 MEMB     65       DOPE     H4X      HAL2     0.900000E-01   1.00800           0
      8094 MEMB     65       DOPE     H4Y      HAL2     0.900000E-01   1.00800           0
      8095 MEMB     65       DOPE     C35      CTL2    -0.180000       12.0110           0
      8096 MEMB     65       DOPE     H5X      HAL2     0.900000E-01   1.00800           0
      8097 MEMB     65       DOPE     H5Y      HAL2     0.900000E-01   1.00800           0
      8098 MEMB     65       DOPE     C36      CTL2    -0.180000       12.0110           0
      8099 MEMB     65       DOPE     H6X      HAL2     0.900000E-01   1.00800           0
      8100 MEMB     65       DOPE     H6Y      HAL2     0.900000E-01   1.00800           0
      8101 MEMB     65       DOPE     C37      CTL2    -0.180000       12.0110           0
      8102 MEMB     65       DOPE     H7X      HAL2     0.900000E-01   1.00800           0
      8103 MEMB     65       DOPE     H7Y      HAL2     0.900000E-01   1.00800           0
      8104 MEMB     65       DOPE     C38      CTL2    -0.180000       12.0110           0
      8105 MEMB     65       DOPE     H8X      HAL2     0.900000E-01   1.00800           0
      8106 MEMB     65       DOPE     H8Y      HAL2     0.900000E-01   1.00800           0
      8107 MEMB     65       DOPE     C39      CEL1    -0.150000       12.0110           0
      8108 MEMB     65       DOPE     H9X      HEL1     0.150000       1.00800           0
      8109 MEMB     65       DOPE     C310     CEL1    -0.150000       12.0110           0
      8110 MEMB     65       DOPE     H10X     HEL1     0.150000       1.00800           0
      8111 MEMB     65       DOPE     C311     CTL2    -0.180000       12.0110           0
      8112 MEMB     65       DOPE     H11X     HAL2     0.900000E-01   1.00800           0
      8113 MEMB     65       DOPE     H11Y     HAL2     0.900000E-01   1.00800           0
      8114 MEMB     65       DOPE     C312     CTL2    -0.180000       12.0110           0
      8115 MEMB     65       DOPE     H12X     HAL2     0.900000E-01   1.00800           0
      8116 MEMB     65       DOPE     H12Y     HAL2     0.900000E-01   1.00800           0
      8117 MEMB     65       DOPE     C313     CTL2    -0.180000       12.0110           0
      8118 MEMB     65       DOPE     H13X     HAL2     0.900000E-01   1.00800           0
      8119 MEMB     65       DOPE     H13Y     HAL2     0.900000E-01   1.00800           0
      8120 MEMB     65       DOPE     C314     CTL2    -0.180000       12.0110           0
      8121 MEMB     65       DOPE     H14X     HAL2     0.900000E-01   1.00800           0
      8122 MEMB     65       DOPE     H14Y     HAL2     0.900000E-01   1.00800           0
      8123 MEMB     65       DOPE     C315     CTL2    -0.180000       12.0110           0
      8124 MEMB     65       DOPE     H15X     HAL2     0.900000E-01   1.00800           0
      8125 MEMB     65       DOPE     H15Y     HAL2     0.900000E-01   1.00800           0
      8126 MEMB     65       DOPE     C316     CTL2    -0.180000       12.0110           0
      8127 MEMB     65       DOPE     H16X     HAL2     0.900000E-01   1.00800           0
      8128 MEMB     65       DOPE     H16Y     HAL2     0.900000E-01   1.00800           0
      8129 MEMB     65       DOPE     C317     CTL2    -0.180000       12.0110           0
      8130 MEMB     65       DOPE     H17X     HAL2     0.900000E-01   1.00800           0
      8131 MEMB     65       DOPE     H17Y     HAL2     0.900000E-01   1.00800           0
      8132 MEMB     65       DOPE     C318     CTL3    -0.270000       12.0110           0
      8133 MEMB     65       DOPE     H18X     HAL3     0.900000E-01   1.00800           0
      8134 MEMB     65       DOPE     H18Y     HAL3     0.900000E-01   1.00800           0
      8135 MEMB     65       DOPE     H18Z     HAL3     0.900000E-01   1.00800           0
      8136 MEMB     66       DOPC     N        NTL     -0.600000       14.0070           0
      8137 MEMB     66       DOPC     C12      CTL2    -0.100000       12.0110           0
      8138 MEMB     66       DOPC     H12A     HL       0.250000       1.00800           0
      8139 MEMB     66       DOPC     H12B     HL       0.250000       1.00800           0
      8140 MEMB     66       DOPC     C13      CTL5    -0.350000       12.0110           0
      8141 MEMB     66       DOPC     H13A     HL       0.250000       1.00800           0
      8142 MEMB     66       DOPC     H13B     HL       0.250000       1.00800           0
      8143 MEMB     66       DOPC     H13C     HL       0.250000       1.00800           0
      8144 MEMB     66       DOPC     C14      CTL5    -0.350000       12.0110           0
      8145 MEMB     66       DOPC     H14A     HL       0.250000       1.00800           0
      8146 MEMB     66       DOPC     H14B     HL       0.250000       1.00800           0
      8147 MEMB     66       DOPC     H14C     HL       0.250000       1.00800           0
      8148 MEMB     66       DOPC     C15      CTL5    -0.350000       12.0110           0
      8149 MEMB     66       DOPC     H15A     HL       0.250000       1.00800           0
      8150 MEMB     66       DOPC     H15B     HL       0.250000       1.00800           0
      8151 MEMB     66       DOPC     H15C     HL       0.250000       1.00800           0
      8152 MEMB     66       DOPC     C11      CTL2    -0.800000E-01   12.0110           0
      8153 MEMB     66       DOPC     H11A     HAL2     0.900000E-01   1.00800           0
      8154 MEMB     66       DOPC     H11B     HAL2     0.900000E-01   1.00800           0
      8155 MEMB     66       DOPC     P        PL        1.50000       30.9740           0
      8156 MEMB     66       DOPC     O13      O2L     -0.780000       15.9994           0
      8157 MEMB     66       DOPC     O14      O2L     -0.780000       15.9994           0
      8158 MEMB     66       DOPC     O12      OSLP    -0.570000       15.9994           0
      8159 MEMB     66       DOPC     O11      OSLP    -0.570000       15.9994           0
      8160 MEMB     66       DOPC     C1       CTL2    -0.800000E-01   12.0110           0
      8161 MEMB     66       DOPC     HA       HAL2     0.900000E-01   1.00800           0
      8162 MEMB     66       DOPC     HB       HAL2     0.900000E-01   1.00800           0
      8163 MEMB     66       DOPC     C2       CTL1     0.170000       12.0110           0
      8164 MEMB     66       DOPC     HS       HAL1     0.900000E-01   1.00800           0
      8165 MEMB     66       DOPC     O21      OSL     -0.490000       15.9994           0
      8166 MEMB     66       DOPC     C21      CL       0.900000       12.0110           0
      8167 MEMB     66       DOPC     O22      OBL     -0.630000       15.9994           0
      8168 MEMB     66       DOPC     C22      CTL2    -0.220000       12.0110           0
      8169 MEMB     66       DOPC     H2R      HAL2     0.900000E-01   1.00800           0
      8170 MEMB     66       DOPC     H2S      HAL2     0.900000E-01   1.00800           0
      8171 MEMB     66       DOPC     C3       CTL2     0.800000E-01   12.0110           0
      8172 MEMB     66       DOPC     HX       HAL2     0.900000E-01   1.00800           0
      8173 MEMB     66       DOPC     HY       HAL2     0.900000E-01   1.00800           0
      8174 MEMB     66       DOPC     O31      OSL     -0.490000       15.9994           0
      8175 MEMB     66       DOPC     C31      CL       0.900000       12.0110           0
      8176 MEMB     66       DOPC     O32      OBL     -0.630000       15.9994           0
      8177 MEMB     66       DOPC     C32      CTL2    -0.220000       12.0110           0
      8178 MEMB     66       DOPC     H2X      HAL2     0.900000E-01   1.00800           0
      8179 MEMB     66       DOPC     H2Y      HAL2     0.900000E-01   1.00800           0
      8180 MEMB     66       DOPC     C23      CTL2    -0.180000       12.0110           0
      8181 MEMB     66       DOPC     H3R      HAL2     0.900000E-01   1.00800           0
      8182 MEMB     66       DOPC     H3S      HAL2     0.900000E-01   1.00800           0
      8183 MEMB     66       DOPC     C24      CTL2    -0.180000       12.0110           0
      8184 MEMB     66       DOPC     H4R      HAL2     0.900000E-01   1.00800           0
      8185 MEMB     66       DOPC     H4S      HAL2     0.900000E-01   1.00800           0
      8186 MEMB     66       DOPC     C25      CTL2    -0.180000       12.0110           0
      8187 MEMB     66       DOPC     H5R      HAL2     0.900000E-01   1.00800           0
      8188 MEMB     66       DOPC     H5S      HAL2     0.900000E-01   1.00800           0
      8189 MEMB     66       DOPC     C26      CTL2    -0.180000       12.0110           0
      8190 MEMB     66       DOPC     H6R      HAL2     0.900000E-01   1.00800           0
      8191 MEMB     66       DOPC     H6S      HAL2     0.900000E-01   1.00800           0
      8192 MEMB     66       DOPC     C27      CTL2    -0.180000       12.0110           0
      8193 MEMB     66       DOPC     H7R      HAL2     0.900000E-01   1.00800           0
      8194 MEMB     66       DOPC     H7S      HAL2     0.900000E-01   1.00800           0
      8195 MEMB     66       DOPC     C28      CTL2    -0.180000       12.0110           0
      8196 MEMB     66       DOPC     H8R      HAL2     0.900000E-01   1.00800           0
      8197 MEMB     66       DOPC     H8S      HAL2     0.900000E-01   1.00800           0
      8198 MEMB     66       DOPC     C29      CEL1    -0.150000       12.0110           0
      8199 MEMB     66       DOPC     H9R      HEL1     0.150000       1.00800           0
      8200 MEMB     66       DOPC     C210     CEL1    -0.150000       12.0110           0
      8201 MEMB     66       DOPC     H10R     HEL1     0.150000       1.00800           0
      8202 MEMB     66       DOPC     C211     CTL2    -0.180000       12.0110           0
      8203 MEMB     66       DOPC     H11R     HAL2     0.900000E-01   1.00800           0
      8204 MEMB     66       DOPC     H11S     HAL2     0.900000E-01   1.00800           0
      8205 MEMB     66       DOPC     C212     CTL2    -0.180000       12.0110           0
      8206 MEMB     66       DOPC     H12R     HAL2     0.900000E-01   1.00800           0
      8207 MEMB     66       DOPC     H12S     HAL2     0.900000E-01   1.00800           0
      8208 MEMB     66       DOPC     C213     CTL2    -0.180000       12.0110           0
      8209 MEMB     66       DOPC     H13R     HAL2     0.900000E-01   1.00800           0
      8210 MEMB     66       DOPC     H13S     HAL2     0.900000E-01   1.00800           0
      8211 MEMB     66       DOPC     C214     CTL2    -0.180000       12.0110           0
      8212 MEMB     66       DOPC     H14R     HAL2     0.900000E-01   1.00800           0
      8213 MEMB     66       DOPC     H14S     HAL2     0.900000E-01   1.00800           0
      8214 MEMB     66       DOPC     C215     CTL2    -0.180000       12.0110           0
      8215 MEMB     66       DOPC     H15R     HAL2     0.900000E-01   1.00800           0
      8216 MEMB     66       DOPC     H15S     HAL2     0.900000E-01   1.00800           0
      8217 MEMB     66       DOPC     C216     CTL2    -0.180000       12.0110           0
      8218 MEMB     66       DOPC     H16R     HAL2     0.900000E-01   1.00800           0
      8219 MEMB     66       DOPC     H16S     HAL2     0.900000E-01   1.00800           0
      8220 MEMB     66       DOPC     C217     CTL2    -0.180000       12.0110           0
      8221 MEMB     66       DOPC     H17R     HAL2     0.900000E-01   1.00800           0
      8222 MEMB     66       DOPC     H17S     HAL2     0.900000E-01   1.00800           0
      8223 MEMB     66       DOPC     C218     CTL3    -0.270000       12.0110           0
      8224 MEMB     66       DOPC     H18R     HAL3     0.900000E-01   1.00800           0
      8225 MEMB     66       DOPC     H18S     HAL3     0.900000E-01   1.00800           0
      8226 MEMB     66       DOPC     H18T     HAL3     0.900000E-01   1.00800           0
      8227 MEMB     66       DOPC     C33      CTL2    -0.180000       12.0110           0
      8228 MEMB     66       DOPC     H3X      HAL2     0.900000E-01   1.00800           0
      8229 MEMB     66       DOPC     H3Y      HAL2     0.900000E-01   1.00800           0
      8230 MEMB     66       DOPC     C34      CTL2    -0.180000       12.0110           0
      8231 MEMB     66       DOPC     H4X      HAL2     0.900000E-01   1.00800           0
      8232 MEMB     66       DOPC     H4Y      HAL2     0.900000E-01   1.00800           0
      8233 MEMB     66       DOPC     C35      CTL2    -0.180000       12.0110           0
      8234 MEMB     66       DOPC     H5X      HAL2     0.900000E-01   1.00800           0
      8235 MEMB     66       DOPC     H5Y      HAL2     0.900000E-01   1.00800           0
      8236 MEMB     66       DOPC     C36      CTL2    -0.180000       12.0110           0
      8237 MEMB     66       DOPC     H6X      HAL2     0.900000E-01   1.00800           0
      8238 MEMB     66       DOPC     H6Y      HAL2     0.900000E-01   1.00800           0
      8239 MEMB     66       DOPC     C37      CTL2    -0.180000       12.0110           0
      8240 MEMB     66       DOPC     H7X      HAL2     0.900000E-01   1.00800           0
      8241 MEMB     66       DOPC     H7Y      HAL2     0.900000E-01   1.00800           0
      8242 MEMB     66       DOPC     C38      CTL2    -0.180000       12.0110           0
      8243 MEMB     66       DOPC     H8X      HAL2     0.900000E-01   1.00800           0
      8244 MEMB     66       DOPC     H8Y      HAL2     0.900000E-01   1.00800           0
      8245 MEMB     66       DOPC     C39      CEL1    -0.150000       12.0110           0
      8246 MEMB     66       DOPC     H9X      HEL1     0.150000       1.00800           0
      8247 MEMB     66       DOPC     C310     CEL1    -0.150000       12.0110           0
      8248 MEMB     66       DOPC     H10X     HEL1     0.150000       1.00800           0
      8249 MEMB     66       DOPC     C311     CTL2    -0.180000       12.0110           0
      8250 MEMB     66       DOPC     H11X     HAL2     0.900000E-01   1.00800           0
      8251 MEMB     66       DOPC     H11Y     HAL2     0.900000E-01   1.00800           0
      8252 MEMB     66       DOPC     C312     CTL2    -0.180000       12.0110           0
      8253 MEMB     66       DOPC     H12X     HAL2     0.900000E-01   1.00800           0
      8254 MEMB     66       DOPC     H12Y     HAL2     0.900000E-01   1.00800           0
      8255 MEMB     66       DOPC     C313     CTL2    -0.180000       12.0110           0
      8256 MEMB     66       DOPC     H13X     HAL2     0.900000E-01   1.00800           0
      8257 MEMB     66       DOPC     H13Y     HAL2     0.900000E-01   1.00800           0
      8258 MEMB     66       DOPC     C314     CTL2    -0.180000       12.0110           0
      8259 MEMB     66       DOPC     H14X     HAL2     0.900000E-01   1.00800           0
      8260 MEMB     66       DOPC     H14Y     HAL2     0.900000E-01   1.00800           0
      8261 MEMB     66       DOPC     C315     CTL2    -0.180000       12.0110           0
      8262 MEMB     66       DOPC     H15X     HAL2     0.900000E-01   1.00800           0
      8263 MEMB     66       DOPC     H15Y     HAL2     0.900000E-01   1.00800           0
      8264 MEMB     66       DOPC     C316     CTL2    -0.180000       12.0110           0
      8265 MEMB     66       DOPC     H16X     HAL2     0.900000E-01   1.00800           0
      8266 MEMB     66       DOPC     H16Y     HAL2     0.900000E-01   1.00800           0
      8267 MEMB     66       DOPC     C317     CTL2    -0.180000       12.0110           0
      8268 MEMB     66       DOPC     H17X     HAL2     0.900000E-01   1.00800           0
      8269 MEMB     66       DOPC     H17Y     HAL2     0.900000E-01   1.00800           0
      8270 MEMB     66       DOPC     C318     CTL3    -0.270000       12.0110           0
      8271 MEMB     66       DOPC     H18X     HAL3     0.900000E-01   1.00800           0
      8272 MEMB     66       DOPC     H18Y     HAL3     0.900000E-01   1.00800           0
      8273 MEMB     66       DOPC     H18Z     HAL3     0.900000E-01   1.00800           0
      8274 MEMB     67       DOPC     N        NTL     -0.600000       14.0070           0
      8275 MEMB     67       DOPC     C12      CTL2    -0.100000       12.0110           0
      8276 MEMB     67       DOPC     H12A     HL       0.250000       1.00800           0
      8277 MEMB     67       DOPC     H12B     HL       0.250000       1.00800           0
      8278 MEMB     67       DOPC     C13      CTL5    -0.350000       12.0110           0
      8279 MEMB     67       DOPC     H13A     HL       0.250000       1.00800           0
      8280 MEMB     67       DOPC     H13B     HL       0.250000       1.00800           0
      8281 MEMB     67       DOPC     H13C     HL       0.250000       1.00800           0
      8282 MEMB     67       DOPC     C14      CTL5    -0.350000       12.0110           0
      8283 MEMB     67       DOPC     H14A     HL       0.250000       1.00800           0
      8284 MEMB     67       DOPC     H14B     HL       0.250000       1.00800           0
      8285 MEMB     67       DOPC     H14C     HL       0.250000       1.00800           0
      8286 MEMB     67       DOPC     C15      CTL5    -0.350000       12.0110           0
      8287 MEMB     67       DOPC     H15A     HL       0.250000       1.00800           0
      8288 MEMB     67       DOPC     H15B     HL       0.250000       1.00800           0
      8289 MEMB     67       DOPC     H15C     HL       0.250000       1.00800           0
      8290 MEMB     67       DOPC     C11      CTL2    -0.800000E-01   12.0110           0
      8291 MEMB     67       DOPC     H11A     HAL2     0.900000E-01   1.00800           0
      8292 MEMB     67       DOPC     H11B     HAL2     0.900000E-01   1.00800           0
      8293 MEMB     67       DOPC     P        PL        1.50000       30.9740           0
      8294 MEMB     67       DOPC     O13      O2L     -0.780000       15.9994           0
      8295 MEMB     67       DOPC     O14      O2L     -0.780000       15.9994           0
      8296 MEMB     67       DOPC     O12      OSLP    -0.570000       15.9994           0
      8297 MEMB     67       DOPC     O11      OSLP    -0.570000       15.9994           0
      8298 MEMB     67       DOPC     C1       CTL2    -0.800000E-01   12.0110           0
      8299 MEMB     67       DOPC     HA       HAL2     0.900000E-01   1.00800           0
      8300 MEMB     67       DOPC     HB       HAL2     0.900000E-01   1.00800           0
      8301 MEMB     67       DOPC     C2       CTL1     0.170000       12.0110           0
      8302 MEMB     67       DOPC     HS       HAL1     0.900000E-01   1.00800           0
      8303 MEMB     67       DOPC     O21      OSL     -0.490000       15.9994           0
      8304 MEMB     67       DOPC     C21      CL       0.900000       12.0110           0
      8305 MEMB     67       DOPC     O22      OBL     -0.630000       15.9994           0
      8306 MEMB     67       DOPC     C22      CTL2    -0.220000       12.0110           0
      8307 MEMB     67       DOPC     H2R      HAL2     0.900000E-01   1.00800           0
      8308 MEMB     67       DOPC     H2S      HAL2     0.900000E-01   1.00800           0
      8309 MEMB     67       DOPC     C3       CTL2     0.800000E-01   12.0110           0
      8310 MEMB     67       DOPC     HX       HAL2     0.900000E-01   1.00800           0
      8311 MEMB     67       DOPC     HY       HAL2     0.900000E-01   1.00800           0
      8312 MEMB     67       DOPC     O31      OSL     -0.490000       15.9994           0
      8313 MEMB     67       DOPC     C31      CL       0.900000       12.0110           0
      8314 MEMB     67       DOPC     O32      OBL     -0.630000       15.9994           0
      8315 MEMB     67       DOPC     C32      CTL2    -0.220000       12.0110           0
      8316 MEMB     67       DOPC     H2X      HAL2     0.900000E-01   1.00800           0
      8317 MEMB     67       DOPC     H2Y      HAL2     0.900000E-01   1.00800           0
      8318 MEMB     67       DOPC     C23      CTL2    -0.180000       12.0110           0
      8319 MEMB     67       DOPC     H3R      HAL2     0.900000E-01   1.00800           0
      8320 MEMB     67       DOPC     H3S      HAL2     0.900000E-01   1.00800           0
      8321 MEMB     67       DOPC     C24      CTL2    -0.180000       12.0110           0
      8322 MEMB     67       DOPC     H4R      HAL2     0.900000E-01   1.00800           0
      8323 MEMB     67       DOPC     H4S      HAL2     0.900000E-01   1.00800           0
      8324 MEMB     67       DOPC     C25      CTL2    -0.180000       12.0110           0
      8325 MEMB     67       DOPC     H5R      HAL2     0.900000E-01   1.00800           0
      8326 MEMB     67       DOPC     H5S      HAL2     0.900000E-01   1.00800           0
      8327 MEMB     67       DOPC     C26      CTL2    -0.180000       12.0110           0
      8328 MEMB     67       DOPC     H6R      HAL2     0.900000E-01   1.00800           0
      8329 MEMB     67       DOPC     H6S      HAL2     0.900000E-01   1.00800           0
      8330 MEMB     67       DOPC     C27      CTL2    -0.180000       12.0110           0
      8331 MEMB     67       DOPC     H7R      HAL2     0.900000E-01   1.00800           0
      8332 MEMB     67       DOPC     H7S      HAL2     0.900000E-01   1.00800           0
      8333 MEMB     67       DOPC     C28      CTL2    -0.180000       12.0110           0
      8334 MEMB     67       DOPC     H8R      HAL2     0.900000E-01   1.00800           0
      8335 MEMB     67       DOPC     H8S      HAL2     0.900000E-01   1.00800           0
      8336 MEMB     67       DOPC     C29      CEL1    -0.150000       12.0110           0
      8337 MEMB     67       DOPC     H9R      HEL1     0.150000       1.00800           0
      8338 MEMB     67       DOPC     C210     CEL1    -0.150000       12.0110           0
      8339 MEMB     67       DOPC     H10R     HEL1     0.150000       1.00800           0
      8340 MEMB     67       DOPC     C211     CTL2    -0.180000       12.0110           0
      8341 MEMB     67       DOPC     H11R     HAL2     0.900000E-01   1.00800           0
      8342 MEMB     67       DOPC     H11S     HAL2     0.900000E-01   1.00800           0
      8343 MEMB     67       DOPC     C212     CTL2    -0.180000       12.0110           0
      8344 MEMB     67       DOPC     H12R     HAL2     0.900000E-01   1.00800           0
      8345 MEMB     67       DOPC     H12S     HAL2     0.900000E-01   1.00800           0
      8346 MEMB     67       DOPC     C213     CTL2    -0.180000       12.0110           0
      8347 MEMB     67       DOPC     H13R     HAL2     0.900000E-01   1.00800           0
      8348 MEMB     67       DOPC     H13S     HAL2     0.900000E-01   1.00800           0
      8349 MEMB     67       DOPC     C214     CTL2    -0.180000       12.0110           0
      8350 MEMB     67       DOPC     H14R     HAL2     0.900000E-01   1.00800           0
      8351 MEMB     67       DOPC     H14S     HAL2     0.900000E-01   1.00800           0
      8352 MEMB     67       DOPC     C215     CTL2    -0.180000       12.0110           0
      8353 MEMB     67       DOPC     H15R     HAL2     0.900000E-01   1.00800           0
      8354 MEMB     67       DOPC     H15S     HAL2     0.900000E-01   1.00800           0
      8355 MEMB     67       DOPC     C216     CTL2    -0.180000       12.0110           0
      8356 MEMB     67       DOPC     H16R     HAL2     0.900000E-01   1.00800           0
      8357 MEMB     67       DOPC     H16S     HAL2     0.900000E-01   1.00800           0
      8358 MEMB     67       DOPC     C217     CTL2    -0.180000       12.0110           0
      8359 MEMB     67       DOPC     H17R     HAL2     0.900000E-01   1.00800           0
      8360 MEMB     67       DOPC     H17S     HAL2     0.900000E-01   1.00800           0
      8361 MEMB     67       DOPC     C218     CTL3    -0.270000       12.0110           0
      8362 MEMB     67       DOPC     H18R     HAL3     0.900000E-01   1.00800           0
      8363 MEMB     67       DOPC     H18S     HAL3     0.900000E-01   1.00800           0
      8364 MEMB     67       DOPC     H18T     HAL3     0.900000E-01   1.00800           0
      8365 MEMB     67       DOPC     C33      CTL2    -0.180000       12.0110           0
      8366 MEMB     67       DOPC     H3X      HAL2     0.900000E-01   1.00800           0
      8367 MEMB     67       DOPC     H3Y      HAL2     0.900000E-01   1.00800           0
      8368 MEMB     67       DOPC     C34      CTL2    -0.180000       12.0110           0
      8369 MEMB     67       DOPC     H4X      HAL2     0.900000E-01   1.00800           0
      8370 MEMB     67       DOPC     H4Y      HAL2     0.900000E-01   1.00800           0
      8371 MEMB     67       DOPC     C35      CTL2    -0.180000       12.0110           0
      8372 MEMB     67       DOPC     H5X      HAL2     0.900000E-01   1.00800           0
      8373 MEMB     67       DOPC     H5Y      HAL2     0.900000E-01   1.00800           0
      8374 MEMB     67       DOPC     C36      CTL2    -0.180000       12.0110           0
      8375 MEMB     67       DOPC     H6X      HAL2     0.900000E-01   1.00800           0
      8376 MEMB     67       DOPC     H6Y      HAL2     0.900000E-01   1.00800           0
      8377 MEMB     67       DOPC     C37      CTL2    -0.180000       12.0110           0
      8378 MEMB     67       DOPC     H7X      HAL2     0.900000E-01   1.00800           0
      8379 MEMB     67       DOPC     H7Y      HAL2     0.900000E-01   1.00800           0
      8380 MEMB     67       DOPC     C38      CTL2    -0.180000       12.0110           0
      8381 MEMB     67       DOPC     H8X      HAL2     0.900000E-01   1.00800           0
      8382 MEMB     67       DOPC     H8Y      HAL2     0.900000E-01   1.00800           0
      8383 MEMB     67       DOPC     C39      CEL1    -0.150000       12.0110           0
      8384 MEMB     67       DOPC     H9X      HEL1     0.150000       1.00800           0
      8385 MEMB     67       DOPC     C310     CEL1    -0.150000       12.0110           0
      8386 MEMB     67       DOPC     H10X     HEL1     0.150000       1.00800           0
      8387 MEMB     67       DOPC     C311     CTL2    -0.180000       12.0110           0
      8388 MEMB     67       DOPC     H11X     HAL2     0.900000E-01   1.00800           0
      8389 MEMB     67       DOPC     H11Y     HAL2     0.900000E-01   1.00800           0
      8390 MEMB     67       DOPC     C312     CTL2    -0.180000       12.0110           0
      8391 MEMB     67       DOPC     H12X     HAL2     0.900000E-01   1.00800           0
      8392 MEMB     67       DOPC     H12Y     HAL2     0.900000E-01   1.00800           0
      8393 MEMB     67       DOPC     C313     CTL2    -0.180000       12.0110           0
      8394 MEMB     67       DOPC     H13X     HAL2     0.900000E-01   1.00800           0
      8395 MEMB     67       DOPC     H13Y     HAL2     0.900000E-01   1.00800           0
      8396 MEMB     67       DOPC     C314     CTL2    -0.180000       12.0110           0
      8397 MEMB     67       DOPC     H14X     HAL2     0.900000E-01   1.00800           0
      8398 MEMB     67       DOPC     H14Y     HAL2     0.900000E-01   1.00800           0
      8399 MEMB     67       DOPC     C315     CTL2    -0.180000       12.0110           0
      8400 MEMB     67       DOPC     H15X     HAL2     0.900000E-01   1.00800           0
      8401 MEMB     67       DOPC     H15Y     HAL2     0.900000E-01   1.00800           0
      8402 MEMB     67       DOPC     C316     CTL2    -0.180000       12.0110           0
      8403 MEMB     67       DOPC     H16X     HAL2     0.900000E-01   1.00800           0
      8404 MEMB     67       DOPC     H16Y     HAL2     0.900000E-01   1.00800           0
      8405 MEMB     67       DOPC     C317     CTL2    -0.180000       12.0110           0
      8406 MEMB     67       DOPC     H17X     HAL2     0.900000E-01   1.00800           0
      8407 MEMB     67       DOPC     H17Y     HAL2     0.900000E-01   1.00800           0
      8408 MEMB     67       DOPC     C318     CTL3    -0.270000       12.0110           0
      8409 MEMB     67       DOPC     H18X     HAL3     0.900000E-01   1.00800           0
      8410 MEMB     67       DOPC     H18Y     HAL3     0.900000E-01   1.00800           0
      8411 MEMB     67       DOPC     H18Z     HAL3     0.900000E-01   1.00800           0
      8412 MEMB     68       DOPC     N        NTL     -0.600000       14.0070           0
      8413 MEMB     68       DOPC     C12      CTL2    -0.100000       12.0110           0
      8414 MEMB     68       DOPC     H12A     HL       0.250000       1.00800           0
      8415 MEMB     68       DOPC     H12B     HL       0.250000       1.00800           0
      8416 MEMB     68       DOPC     C13      CTL5    -0.350000       12.0110           0
      8417 MEMB     68       DOPC     H13A     HL       0.250000       1.00800           0
      8418 MEMB     68       DOPC     H13B     HL       0.250000       1.00800           0
      8419 MEMB     68       DOPC     H13C     HL       0.250000       1.00800           0
      8420 MEMB     68       DOPC     C14      CTL5    -0.350000       12.0110           0
      8421 MEMB     68       DOPC     H14A     HL       0.250000       1.00800           0
      8422 MEMB     68       DOPC     H14B     HL       0.250000       1.00800           0
      8423 MEMB     68       DOPC     H14C     HL       0.250000       1.00800           0
      8424 MEMB     68       DOPC     C15      CTL5    -0.350000       12.0110           0
      8425 MEMB     68       DOPC     H15A     HL       0.250000       1.00800           0
      8426 MEMB     68       DOPC     H15B     HL       0.250000       1.00800           0
      8427 MEMB     68       DOPC     H15C     HL       0.250000       1.00800           0
      8428 MEMB     68       DOPC     C11      CTL2    -0.800000E-01   12.0110           0
      8429 MEMB     68       DOPC     H11A     HAL2     0.900000E-01   1.00800           0
      8430 MEMB     68       DOPC     H11B     HAL2     0.900000E-01   1.00800           0
      8431 MEMB     68       DOPC     P        PL        1.50000       30.9740           0
      8432 MEMB     68       DOPC     O13      O2L     -0.780000       15.9994           0
      8433 MEMB     68       DOPC     O14      O2L     -0.780000       15.9994           0
      8434 MEMB     68       DOPC     O12      OSLP    -0.570000       15.9994           0
      8435 MEMB     68       DOPC     O11      OSLP    -0.570000       15.9994           0
      8436 MEMB     68       DOPC     C1       CTL2    -0.800000E-01   12.0110           0
      8437 MEMB     68       DOPC     HA       HAL2     0.900000E-01   1.00800           0
      8438 MEMB     68       DOPC     HB       HAL2     0.900000E-01   1.00800           0
      8439 MEMB     68       DOPC     C2       CTL1     0.170000       12.0110           0
      8440 MEMB     68       DOPC     HS       HAL1     0.900000E-01   1.00800           0
      8441 MEMB     68       DOPC     O21      OSL     -0.490000       15.9994           0
      8442 MEMB     68       DOPC     C21      CL       0.900000       12.0110           0
      8443 MEMB     68       DOPC     O22      OBL     -0.630000       15.9994           0
      8444 MEMB     68       DOPC     C22      CTL2    -0.220000       12.0110           0
      8445 MEMB     68       DOPC     H2R      HAL2     0.900000E-01   1.00800           0
      8446 MEMB     68       DOPC     H2S      HAL2     0.900000E-01   1.00800           0
      8447 MEMB     68       DOPC     C3       CTL2     0.800000E-01   12.0110           0
      8448 MEMB     68       DOPC     HX       HAL2     0.900000E-01   1.00800           0
      8449 MEMB     68       DOPC     HY       HAL2     0.900000E-01   1.00800           0
      8450 MEMB     68       DOPC     O31      OSL     -0.490000       15.9994           0
      8451 MEMB     68       DOPC     C31      CL       0.900000       12.0110           0
      8452 MEMB     68       DOPC     O32      OBL     -0.630000       15.9994           0
      8453 MEMB     68       DOPC     C32      CTL2    -0.220000       12.0110           0
      8454 MEMB     68       DOPC     H2X      HAL2     0.900000E-01   1.00800           0
      8455 MEMB     68       DOPC     H2Y      HAL2     0.900000E-01   1.00800           0
      8456 MEMB     68       DOPC     C23      CTL2    -0.180000       12.0110           0
      8457 MEMB     68       DOPC     H3R      HAL2     0.900000E-01   1.00800           0
      8458 MEMB     68       DOPC     H3S      HAL2     0.900000E-01   1.00800           0
      8459 MEMB     68       DOPC     C24      CTL2    -0.180000       12.0110           0
      8460 MEMB     68       DOPC     H4R      HAL2     0.900000E-01   1.00800           0
      8461 MEMB     68       DOPC     H4S      HAL2     0.900000E-01   1.00800           0
      8462 MEMB     68       DOPC     C25      CTL2    -0.180000       12.0110           0
      8463 MEMB     68       DOPC     H5R      HAL2     0.900000E-01   1.00800           0
      8464 MEMB     68       DOPC     H5S      HAL2     0.900000E-01   1.00800           0
      8465 MEMB     68       DOPC     C26      CTL2    -0.180000       12.0110           0
      8466 MEMB     68       DOPC     H6R      HAL2     0.900000E-01   1.00800           0
      8467 MEMB     68       DOPC     H6S      HAL2     0.900000E-01   1.00800           0
      8468 MEMB     68       DOPC     C27      CTL2    -0.180000       12.0110           0
      8469 MEMB     68       DOPC     H7R      HAL2     0.900000E-01   1.00800           0
      8470 MEMB     68       DOPC     H7S      HAL2     0.900000E-01   1.00800           0
      8471 MEMB     68       DOPC     C28      CTL2    -0.180000       12.0110           0
      8472 MEMB     68       DOPC     H8R      HAL2     0.900000E-01   1.00800           0
      8473 MEMB     68       DOPC     H8S      HAL2     0.900000E-01   1.00800           0
      8474 MEMB     68       DOPC     C29      CEL1    -0.150000       12.0110           0
      8475 MEMB     68       DOPC     H9R      HEL1     0.150000       1.00800           0
      8476 MEMB     68       DOPC     C210     CEL1    -0.150000       12.0110           0
      8477 MEMB     68       DOPC     H10R     HEL1     0.150000       1.00800           0
      8478 MEMB     68       DOPC     C211     CTL2    -0.180000       12.0110           0
      8479 MEMB     68       DOPC     H11R     HAL2     0.900000E-01   1.00800           0
      8480 MEMB     68       DOPC     H11S     HAL2     0.900000E-01   1.00800           0
      8481 MEMB     68       DOPC     C212     CTL2    -0.180000       12.0110           0
      8482 MEMB     68       DOPC     H12R     HAL2     0.900000E-01   1.00800           0
      8483 MEMB     68       DOPC     H12S     HAL2     0.900000E-01   1.00800           0
      8484 MEMB     68       DOPC     C213     CTL2    -0.180000       12.0110           0
      8485 MEMB     68       DOPC     H13R     HAL2     0.900000E-01   1.00800           0
      8486 MEMB     68       DOPC     H13S     HAL2     0.900000E-01   1.00800           0
      8487 MEMB     68       DOPC     C214     CTL2    -0.180000       12.0110           0
      8488 MEMB     68       DOPC     H14R     HAL2     0.900000E-01   1.00800           0
      8489 MEMB     68       DOPC     H14S     HAL2     0.900000E-01   1.00800           0
      8490 MEMB     68       DOPC     C215     CTL2    -0.180000       12.0110           0
      8491 MEMB     68       DOPC     H15R     HAL2     0.900000E-01   1.00800           0
      8492 MEMB     68       DOPC     H15S     HAL2     0.900000E-01   1.00800           0
      8493 MEMB     68       DOPC     C216     CTL2    -0.180000       12.0110           0
      8494 MEMB     68       DOPC     H16R     HAL2     0.900000E-01   1.00800           0
      8495 MEMB     68       DOPC     H16S     HAL2     0.900000E-01   1.00800           0
      8496 MEMB     68       DOPC     C217     CTL2    -0.180000       12.0110           0
      8497 MEMB     68       DOPC     H17R     HAL2     0.900000E-01   1.00800           0
      8498 MEMB     68       DOPC     H17S     HAL2     0.900000E-01   1.00800           0
      8499 MEMB     68       DOPC     C218     CTL3    -0.270000       12.0110           0
      8500 MEMB     68       DOPC     H18R     HAL3     0.900000E-01   1.00800           0
      8501 MEMB     68       DOPC     H18S     HAL3     0.900000E-01   1.00800           0
      8502 MEMB     68       DOPC     H18T     HAL3     0.900000E-01   1.00800           0
      8503 MEMB     68       DOPC     C33      CTL2    -0.180000       12.0110           0
      8504 MEMB     68       DOPC     H3X      HAL2     0.900000E-01   1.00800           0
      8505 MEMB     68       DOPC     H3Y      HAL2     0.900000E-01   1.00800           0
      8506 MEMB     68       DOPC     C34      CTL2    -0.180000       12.0110           0
      8507 MEMB     68       DOPC     H4X      HAL2     0.900000E-01   1.00800           0
      8508 MEMB     68       DOPC     H4Y      HAL2     0.900000E-01   1.00800           0
      8509 MEMB     68       DOPC     C35      CTL2    -0.180000       12.0110           0
      8510 MEMB     68       DOPC     H5X      HAL2     0.900000E-01   1.00800           0
      8511 MEMB     68       DOPC     H5Y      HAL2     0.900000E-01   1.00800           0
      8512 MEMB     68       DOPC     C36      CTL2    -0.180000       12.0110           0
      8513 MEMB     68       DOPC     H6X      HAL2     0.900000E-01   1.00800           0
      8514 MEMB     68       DOPC     H6Y      HAL2     0.900000E-01   1.00800           0
      8515 MEMB     68       DOPC     C37      CTL2    -0.180000       12.0110           0
      8516 MEMB     68       DOPC     H7X      HAL2     0.900000E-01   1.00800           0
      8517 MEMB     68       DOPC     H7Y      HAL2     0.900000E-01   1.00800           0
      8518 MEMB     68       DOPC     C38      CTL2    -0.180000       12.0110           0
      8519 MEMB     68       DOPC     H8X      HAL2     0.900000E-01   1.00800           0
      8520 MEMB     68       DOPC     H8Y      HAL2     0.900000E-01   1.00800           0
      8521 MEMB     68       DOPC     C39      CEL1    -0.150000       12.0110           0
      8522 MEMB     68       DOPC     H9X      HEL1     0.150000       1.00800           0
      8523 MEMB     68       DOPC     C310     CEL1    -0.150000       12.0110           0
      8524 MEMB     68       DOPC     H10X     HEL1     0.150000       1.00800           0
      8525 MEMB     68       DOPC     C311     CTL2    -0.180000       12.0110           0
      8526 MEMB     68       DOPC     H11X     HAL2     0.900000E-01   1.00800           0
      8527 MEMB     68       DOPC     H11Y     HAL2     0.900000E-01   1.00800           0
      8528 MEMB     68       DOPC     C312     CTL2    -0.180000       12.0110           0
      8529 MEMB     68       DOPC     H12X     HAL2     0.900000E-01   1.00800           0
      8530 MEMB     68       DOPC     H12Y     HAL2     0.900000E-01   1.00800           0
      8531 MEMB     68       DOPC     C313     CTL2    -0.180000       12.0110           0
      8532 MEMB     68       DOPC     H13X     HAL2     0.900000E-01   1.00800           0
      8533 MEMB     68       DOPC     H13Y     HAL2     0.900000E-01   1.00800           0
      8534 MEMB     68       DOPC     C314     CTL2    -0.180000       12.0110           0
      8535 MEMB     68       DOPC     H14X     HAL2     0.900000E-01   1.00800           0
      8536 MEMB     68       DOPC     H14Y     HAL2     0.900000E-01   1.00800           0
      8537 MEMB     68       DOPC     C315     CTL2    -0.180000       12.0110           0
      8538 MEMB     68       DOPC     H15X     HAL2     0.900000E-01   1.00800           0
      8539 MEMB     68       DOPC     H15Y     HAL2     0.900000E-01   1.00800           0
      8540 MEMB     68       DOPC     C316     CTL2    -0.180000       12.0110           0
      8541 MEMB     68       DOPC     H16X     HAL2     0.900000E-01   1.00800           0
      8542 MEMB     68       DOPC     H16Y     HAL2     0.900000E-01   1.00800           0
      8543 MEMB     68       DOPC     C317     CTL2    -0.180000       12.0110           0
      8544 MEMB     68       DOPC     H17X     HAL2     0.900000E-01   1.00800           0
      8545 MEMB     68       DOPC     H17Y     HAL2     0.900000E-01   1.00800           0
      8546 MEMB     68       DOPC     C318     CTL3    -0.270000       12.0110           0
      8547 MEMB     68       DOPC     H18X     HAL3     0.900000E-01   1.00800           0
      8548 MEMB     68       DOPC     H18Y     HAL3     0.900000E-01   1.00800           0
      8549 MEMB     68       DOPC     H18Z     HAL3     0.900000E-01   1.00800           0
      8550 MEMB     69       DOPE     N        NH3L    -0.300000       14.0070           0
      8551 MEMB     69       DOPE     HN1      HCL      0.330000       1.00800           0
      8552 MEMB     69       DOPE     HN2      HCL      0.330000       1.00800           0
      8553 MEMB     69       DOPE     HN3      HCL      0.330000       1.00800           0
      8554 MEMB     69       DOPE     C12      CTL2     0.130000       12.0110           0
      8555 MEMB     69       DOPE     H12A     HAL2     0.900000E-01   1.00800           0
      8556 MEMB     69       DOPE     H12B     HAL2     0.900000E-01   1.00800           0
      8557 MEMB     69       DOPE     C11      CTL2    -0.800000E-01   12.0110           0
      8558 MEMB     69       DOPE     H11A     HAL2     0.900000E-01   1.00800           0
      8559 MEMB     69       DOPE     H11B     HAL2     0.900000E-01   1.00800           0
      8560 MEMB     69       DOPE     P        PL        1.50000       30.9740           0
      8561 MEMB     69       DOPE     O13      O2L     -0.780000       15.9994           0
      8562 MEMB     69       DOPE     O14      O2L     -0.780000       15.9994           0
      8563 MEMB     69       DOPE     O11      OSLP    -0.570000       15.9994           0
      8564 MEMB     69       DOPE     O12      OSLP    -0.570000       15.9994           0
      8565 MEMB     69       DOPE     C1       CTL2    -0.800000E-01   12.0110           0
      8566 MEMB     69       DOPE     HA       HAL2     0.900000E-01   1.00800           0
      8567 MEMB     69       DOPE     HB       HAL2     0.900000E-01   1.00800           0
      8568 MEMB     69       DOPE     C2       CTL1     0.170000       12.0110           0
      8569 MEMB     69       DOPE     HS       HAL1     0.900000E-01   1.00800           0
      8570 MEMB     69       DOPE     O21      OSL     -0.490000       15.9994           0
      8571 MEMB     69       DOPE     C21      CL       0.900000       12.0110           0
      8572 MEMB     69       DOPE     O22      OBL     -0.630000       15.9994           0
      8573 MEMB     69       DOPE     C22      CTL2    -0.220000       12.0110           0
      8574 MEMB     69       DOPE     H2R      HAL2     0.900000E-01   1.00800           0
      8575 MEMB     69       DOPE     H2S      HAL2     0.900000E-01   1.00800           0
      8576 MEMB     69       DOPE     C3       CTL2     0.800000E-01   12.0110           0
      8577 MEMB     69       DOPE     HX       HAL2     0.900000E-01   1.00800           0
      8578 MEMB     69       DOPE     HY       HAL2     0.900000E-01   1.00800           0
      8579 MEMB     69       DOPE     O31      OSL     -0.490000       15.9994           0
      8580 MEMB     69       DOPE     C31      CL       0.900000       12.0110           0
      8581 MEMB     69       DOPE     O32      OBL     -0.630000       15.9994           0
      8582 MEMB     69       DOPE     C32      CTL2    -0.220000       12.0110           0
      8583 MEMB     69       DOPE     H2X      HAL2     0.900000E-01   1.00800           0
      8584 MEMB     69       DOPE     H2Y      HAL2     0.900000E-01   1.00800           0
      8585 MEMB     69       DOPE     C23      CTL2    -0.180000       12.0110           0
      8586 MEMB     69       DOPE     H3R      HAL2     0.900000E-01   1.00800           0
      8587 MEMB     69       DOPE     H3S      HAL2     0.900000E-01   1.00800           0
      8588 MEMB     69       DOPE     C24      CTL2    -0.180000       12.0110           0
      8589 MEMB     69       DOPE     H4R      HAL2     0.900000E-01   1.00800           0
      8590 MEMB     69       DOPE     H4S      HAL2     0.900000E-01   1.00800           0
      8591 MEMB     69       DOPE     C25      CTL2    -0.180000       12.0110           0
      8592 MEMB     69       DOPE     H5R      HAL2     0.900000E-01   1.00800           0
      8593 MEMB     69       DOPE     H5S      HAL2     0.900000E-01   1.00800           0
      8594 MEMB     69       DOPE     C26      CTL2    -0.180000       12.0110           0
      8595 MEMB     69       DOPE     H6R      HAL2     0.900000E-01   1.00800           0
      8596 MEMB     69       DOPE     H6S      HAL2     0.900000E-01   1.00800           0
      8597 MEMB     69       DOPE     C27      CTL2    -0.180000       12.0110           0
      8598 MEMB     69       DOPE     H7R      HAL2     0.900000E-01   1.00800           0
      8599 MEMB     69       DOPE     H7S      HAL2     0.900000E-01   1.00800           0
      8600 MEMB     69       DOPE     C28      CTL2    -0.180000       12.0110           0
      8601 MEMB     69       DOPE     H8R      HAL2     0.900000E-01   1.00800           0
      8602 MEMB     69       DOPE     H8S      HAL2     0.900000E-01   1.00800           0
      8603 MEMB     69       DOPE     C29      CEL1    -0.150000       12.0110           0
      8604 MEMB     69       DOPE     H9R      HEL1     0.150000       1.00800           0
      8605 MEMB     69       DOPE     C210     CEL1    -0.150000       12.0110           0
      8606 MEMB     69       DOPE     H10R     HEL1     0.150000       1.00800           0
      8607 MEMB     69       DOPE     C211     CTL2    -0.180000       12.0110           0
      8608 MEMB     69       DOPE     H11R     HAL2     0.900000E-01   1.00800           0
      8609 MEMB     69       DOPE     H11S     HAL2     0.900000E-01   1.00800           0
      8610 MEMB     69       DOPE     C212     CTL2    -0.180000       12.0110           0
      8611 MEMB     69       DOPE     H12R     HAL2     0.900000E-01   1.00800           0
      8612 MEMB     69       DOPE     H12S     HAL2     0.900000E-01   1.00800           0
      8613 MEMB     69       DOPE     C213     CTL2    -0.180000       12.0110           0
      8614 MEMB     69       DOPE     H13R     HAL2     0.900000E-01   1.00800           0
      8615 MEMB     69       DOPE     H13S     HAL2     0.900000E-01   1.00800           0
      8616 MEMB     69       DOPE     C214     CTL2    -0.180000       12.0110           0
      8617 MEMB     69       DOPE     H14R     HAL2     0.900000E-01   1.00800           0
      8618 MEMB     69       DOPE     H14S     HAL2     0.900000E-01   1.00800           0
      8619 MEMB     69       DOPE     C215     CTL2    -0.180000       12.0110           0
      8620 MEMB     69       DOPE     H15R     HAL2     0.900000E-01   1.00800           0
      8621 MEMB     69       DOPE     H15S     HAL2     0.900000E-01   1.00800           0
      8622 MEMB     69       DOPE     C216     CTL2    -0.180000       12.0110           0
      8623 MEMB     69       DOPE     H16R     HAL2     0.900000E-01   1.00800           0
      8624 MEMB     69       DOPE     H16S     HAL2     0.900000E-01   1.00800           0
      8625 MEMB     69       DOPE     C217     CTL2    -0.180000       12.0110           0
      8626 MEMB     69       DOPE     H17R     HAL2     0.900000E-01   1.00800           0
      8627 MEMB     69       DOPE     H17S     HAL2     0.900000E-01   1.00800           0
      8628 MEMB     69       DOPE     C218     CTL3    -0.270000       12.0110           0
      8629 MEMB     69       DOPE     H18R     HAL3     0.900000E-01   1.00800           0
      8630 MEMB     69       DOPE     H18S     HAL3     0.900000E-01   1.00800           0
      8631 MEMB     69       DOPE     H18T     HAL3     0.900000E-01   1.00800           0
      8632 MEMB     69       DOPE     C33      CTL2    -0.180000       12.0110           0
      8633 MEMB     69       DOPE     H3X      HAL2     0.900000E-01   1.00800           0
      8634 MEMB     69       DOPE     H3Y      HAL2     0.900000E-01   1.00800           0
      8635 MEMB     69       DOPE     C34      CTL2    -0.180000       12.0110           0
      8636 MEMB     69       DOPE     H4X      HAL2     0.900000E-01   1.00800           0
      8637 MEMB     69       DOPE     H4Y      HAL2     0.900000E-01   1.00800           0
      8638 MEMB     69       DOPE     C35      CTL2    -0.180000       12.0110           0
      8639 MEMB     69       DOPE     H5X      HAL2     0.900000E-01   1.00800           0
      8640 MEMB     69       DOPE     H5Y      HAL2     0.900000E-01   1.00800           0
      8641 MEMB     69       DOPE     C36      CTL2    -0.180000       12.0110           0
      8642 MEMB     69       DOPE     H6X      HAL2     0.900000E-01   1.00800           0
      8643 MEMB     69       DOPE     H6Y      HAL2     0.900000E-01   1.00800           0
      8644 MEMB     69       DOPE     C37      CTL2    -0.180000       12.0110           0
      8645 MEMB     69       DOPE     H7X      HAL2     0.900000E-01   1.00800           0
      8646 MEMB     69       DOPE     H7Y      HAL2     0.900000E-01   1.00800           0
      8647 MEMB     69       DOPE     C38      CTL2    -0.180000       12.0110           0
      8648 MEMB     69       DOPE     H8X      HAL2     0.900000E-01   1.00800           0
      8649 MEMB     69       DOPE     H8Y      HAL2     0.900000E-01   1.00800           0
      8650 MEMB     69       DOPE     C39      CEL1    -0.150000       12.0110           0
      8651 MEMB     69       DOPE     H9X      HEL1     0.150000       1.00800           0
      8652 MEMB     69       DOPE     C310     CEL1    -0.150000       12.0110           0
      8653 MEMB     69       DOPE     H10X     HEL1     0.150000       1.00800           0
      8654 MEMB     69       DOPE     C311     CTL2    -0.180000       12.0110           0
      8655 MEMB     69       DOPE     H11X     HAL2     0.900000E-01   1.00800           0
      8656 MEMB     69       DOPE     H11Y     HAL2     0.900000E-01   1.00800           0
      8657 MEMB     69       DOPE     C312     CTL2    -0.180000       12.0110           0
      8658 MEMB     69       DOPE     H12X     HAL2     0.900000E-01   1.00800           0
      8659 MEMB     69       DOPE     H12Y     HAL2     0.900000E-01   1.00800           0
      8660 MEMB     69       DOPE     C313     CTL2    -0.180000       12.0110           0
      8661 MEMB     69       DOPE     H13X     HAL2     0.900000E-01   1.00800           0
      8662 MEMB     69       DOPE     H13Y     HAL2     0.900000E-01   1.00800           0
      8663 MEMB     69       DOPE     C314     CTL2    -0.180000       12.0110           0
      8664 MEMB     69       DOPE     H14X     HAL2     0.900000E-01   1.00800           0
      8665 MEMB     69       DOPE     H14Y     HAL2     0.900000E-01   1.00800           0
      8666 MEMB     69       DOPE     C315     CTL2    -0.180000       12.0110           0
      8667 MEMB     69       DOPE     H15X     HAL2     0.900000E-01   1.00800           0
      8668 MEMB     69       DOPE     H15Y     HAL2     0.900000E-01   1.00800           0
      8669 MEMB     69       DOPE     C316     CTL2    -0.180000       12.0110           0
      8670 MEMB     69       DOPE     H16X     HAL2     0.900000E-01   1.00800           0
      8671 MEMB     69       DOPE     H16Y     HAL2     0.900000E-01   1.00800           0
      8672 MEMB     69       DOPE     C317     CTL2    -0.180000       12.0110           0
      8673 MEMB     69       DOPE     H17X     HAL2     0.900000E-01   1.00800           0
      8674 MEMB     69       DOPE     H17Y     HAL2     0.900000E-01   1.00800           0
      8675 MEMB     69       DOPE     C318     CTL3    -0.270000       12.0110           0
      8676 MEMB     69       DOPE     H18X     HAL3     0.900000E-01   1.00800           0
      8677 MEMB     69       DOPE     H18Y     HAL3     0.900000E-01   1.00800           0
      8678 MEMB     69       DOPE     H18Z     HAL3     0.900000E-01   1.00800           0
      8679 MEMB     70       DOPE     N        NH3L    -0.300000       14.0070           0
      8680 MEMB     70       DOPE     HN1      HCL      0.330000       1.00800           0
      8681 MEMB     70       DOPE     HN2      HCL      0.330000       1.00800           0
      8682 MEMB     70       DOPE     HN3      HCL      0.330000       1.00800           0
      8683 MEMB     70       DOPE     C12      CTL2     0.130000       12.0110           0
      8684 MEMB     70       DOPE     H12A     HAL2     0.900000E-01   1.00800           0
      8685 MEMB     70       DOPE     H12B     HAL2     0.900000E-01   1.00800           0
      8686 MEMB     70       DOPE     C11      CTL2    -0.800000E-01   12.0110           0
      8687 MEMB     70       DOPE     H11A     HAL2     0.900000E-01   1.00800           0
      8688 MEMB     70       DOPE     H11B     HAL2     0.900000E-01   1.00800           0
      8689 MEMB     70       DOPE     P        PL        1.50000       30.9740           0
      8690 MEMB     70       DOPE     O13      O2L     -0.780000       15.9994           0
      8691 MEMB     70       DOPE     O14      O2L     -0.780000       15.9994           0
      8692 MEMB     70       DOPE     O11      OSLP    -0.570000       15.9994           0
      8693 MEMB     70       DOPE     O12      OSLP    -0.570000       15.9994           0
      8694 MEMB     70       DOPE     C1       CTL2    -0.800000E-01   12.0110           0
      8695 MEMB     70       DOPE     HA       HAL2     0.900000E-01   1.00800           0
      8696 MEMB     70       DOPE     HB       HAL2     0.900000E-01   1.00800           0
      8697 MEMB     70       DOPE     C2       CTL1     0.170000       12.0110           0
      8698 MEMB     70       DOPE     HS       HAL1     0.900000E-01   1.00800           0
      8699 MEMB     70       DOPE     O21      OSL     -0.490000       15.9994           0
      8700 MEMB     70       DOPE     C21      CL       0.900000       12.0110           0
      8701 MEMB     70       DOPE     O22      OBL     -0.630000       15.9994           0
      8702 MEMB     70       DOPE     C22      CTL2    -0.220000       12.0110           0
      8703 MEMB     70       DOPE     H2R      HAL2     0.900000E-01   1.00800           0
      8704 MEMB     70       DOPE     H2S      HAL2     0.900000E-01   1.00800           0
      8705 MEMB     70       DOPE     C3       CTL2     0.800000E-01   12.0110           0
      8706 MEMB     70       DOPE     HX       HAL2     0.900000E-01   1.00800           0
      8707 MEMB     70       DOPE     HY       HAL2     0.900000E-01   1.00800           0
      8708 MEMB     70       DOPE     O31      OSL     -0.490000       15.9994           0
      8709 MEMB     70       DOPE     C31      CL       0.900000       12.0110           0
      8710 MEMB     70       DOPE     O32      OBL     -0.630000       15.9994           0
      8711 MEMB     70       DOPE     C32      CTL2    -0.220000       12.0110           0
      8712 MEMB     70       DOPE     H2X      HAL2     0.900000E-01   1.00800           0
      8713 MEMB     70       DOPE     H2Y      HAL2     0.900000E-01   1.00800           0
      8714 MEMB     70       DOPE     C23      CTL2    -0.180000       12.0110           0
      8715 MEMB     70       DOPE     H3R      HAL2     0.900000E-01   1.00800           0
      8716 MEMB     70       DOPE     H3S      HAL2     0.900000E-01   1.00800           0
      8717 MEMB     70       DOPE     C24      CTL2    -0.180000       12.0110           0
      8718 MEMB     70       DOPE     H4R      HAL2     0.900000E-01   1.00800           0
      8719 MEMB     70       DOPE     H4S      HAL2     0.900000E-01   1.00800           0
      8720 MEMB     70       DOPE     C25      CTL2    -0.180000       12.0110           0
      8721 MEMB     70       DOPE     H5R      HAL2     0.900000E-01   1.00800           0
      8722 MEMB     70       DOPE     H5S      HAL2     0.900000E-01   1.00800           0
      8723 MEMB     70       DOPE     C26      CTL2    -0.180000       12.0110           0
      8724 MEMB     70       DOPE     H6R      HAL2     0.900000E-01   1.00800           0
      8725 MEMB     70       DOPE     H6S      HAL2     0.900000E-01   1.00800           0
      8726 MEMB     70       DOPE     C27      CTL2    -0.180000       12.0110           0
      8727 MEMB     70       DOPE     H7R      HAL2     0.900000E-01   1.00800           0
      8728 MEMB     70       DOPE     H7S      HAL2     0.900000E-01   1.00800           0
      8729 MEMB     70       DOPE     C28      CTL2    -0.180000       12.0110           0
      8730 MEMB     70       DOPE     H8R      HAL2     0.900000E-01   1.00800           0
      8731 MEMB     70       DOPE     H8S      HAL2     0.900000E-01   1.00800           0
      8732 MEMB     70       DOPE     C29      CEL1    -0.150000       12.0110           0
      8733 MEMB     70       DOPE     H9R      HEL1     0.150000       1.00800           0
      8734 MEMB     70       DOPE     C210     CEL1    -0.150000       12.0110           0
      8735 MEMB     70       DOPE     H10R     HEL1     0.150000       1.00800           0
      8736 MEMB     70       DOPE     C211     CTL2    -0.180000       12.0110           0
      8737 MEMB     70       DOPE     H11R     HAL2     0.900000E-01   1.00800           0
      8738 MEMB     70       DOPE     H11S     HAL2     0.900000E-01   1.00800           0
      8739 MEMB     70       DOPE     C212     CTL2    -0.180000       12.0110           0
      8740 MEMB     70       DOPE     H12R     HAL2     0.900000E-01   1.00800           0
      8741 MEMB     70       DOPE     H12S     HAL2     0.900000E-01   1.00800           0
      8742 MEMB     70       DOPE     C213     CTL2    -0.180000       12.0110           0
      8743 MEMB     70       DOPE     H13R     HAL2     0.900000E-01   1.00800           0
      8744 MEMB     70       DOPE     H13S     HAL2     0.900000E-01   1.00800           0
      8745 MEMB     70       DOPE     C214     CTL2    -0.180000       12.0110           0
      8746 MEMB     70       DOPE     H14R     HAL2     0.900000E-01   1.00800           0
      8747 MEMB     70       DOPE     H14S     HAL2     0.900000E-01   1.00800           0
      8748 MEMB     70       DOPE     C215     CTL2    -0.180000       12.0110           0
      8749 MEMB     70       DOPE     H15R     HAL2     0.900000E-01   1.00800           0
      8750 MEMB     70       DOPE     H15S     HAL2     0.900000E-01   1.00800           0
      8751 MEMB     70       DOPE     C216     CTL2    -0.180000       12.0110           0
      8752 MEMB     70       DOPE     H16R     HAL2     0.900000E-01   1.00800           0
      8753 MEMB     70       DOPE     H16S     HAL2     0.900000E-01   1.00800           0
      8754 MEMB     70       DOPE     C217     CTL2    -0.180000       12.0110           0
      8755 MEMB     70       DOPE     H17R     HAL2     0.900000E-01   1.00800           0
      8756 MEMB     70       DOPE     H17S     HAL2     0.900000E-01   1.00800           0
      8757 MEMB     70       DOPE     C218     CTL3    -0.270000       12.0110           0
      8758 MEMB     70       DOPE     H18R     HAL3     0.900000E-01   1.00800           0
      8759 MEMB     70       DOPE     H18S     HAL3     0.900000E-01   1.00800           0
      8760 MEMB     70       DOPE     H18T     HAL3     0.900000E-01   1.00800           0
      8761 MEMB     70       DOPE     C33      CTL2    -0.180000       12.0110           0
      8762 MEMB     70       DOPE     H3X      HAL2     0.900000E-01   1.00800           0
      8763 MEMB     70       DOPE     H3Y      HAL2     0.900000E-01   1.00800           0
      8764 MEMB     70       DOPE     C34      CTL2    -0.180000       12.0110           0
      8765 MEMB     70       DOPE     H4X      HAL2     0.900000E-01   1.00800           0
      8766 MEMB     70       DOPE     H4Y      HAL2     0.900000E-01   1.00800           0
      8767 MEMB     70       DOPE     C35      CTL2    -0.180000       12.0110           0
      8768 MEMB     70       DOPE     H5X      HAL2     0.900000E-01   1.00800           0
      8769 MEMB     70       DOPE     H5Y      HAL2     0.900000E-01   1.00800           0
      8770 MEMB     70       DOPE     C36      CTL2    -0.180000       12.0110           0
      8771 MEMB     70       DOPE     H6X      HAL2     0.900000E-01   1.00800           0
      8772 MEMB     70       DOPE     H6Y      HAL2     0.900000E-01   1.00800           0
      8773 MEMB     70       DOPE     C37      CTL2    -0.180000       12.0110           0
      8774 MEMB     70       DOPE     H7X      HAL2     0.900000E-01   1.00800           0
      8775 MEMB     70       DOPE     H7Y      HAL2     0.900000E-01   1.00800           0
      8776 MEMB     70       DOPE     C38      CTL2    -0.180000       12.0110           0
      8777 MEMB     70       DOPE     H8X      HAL2     0.900000E-01   1.00800           0
      8778 MEMB     70       DOPE     H8Y      HAL2     0.900000E-01   1.00800           0
      8779 MEMB     70       DOPE     C39      CEL1    -0.150000       12.0110           0
      8780 MEMB     70       DOPE     H9X      HEL1     0.150000       1.00800           0
      8781 MEMB     70       DOPE     C310     CEL1    -0.150000       12.0110           0
      8782 MEMB     70       DOPE     H10X     HEL1     0.150000       1.00800           0
      8783 MEMB     70       DOPE     C311     CTL2    -0.180000       12.0110           0
      8784 MEMB     70       DOPE     H11X     HAL2     0.900000E-01   1.00800           0
      8785 MEMB     70       DOPE     H11Y     HAL2     0.900000E-01   1.00800           0
      8786 MEMB     70       DOPE     C312     CTL2    -0.180000       12.0110           0
      8787 MEMB     70       DOPE     H12X     HAL2     0.900000E-01   1.00800           0
      8788 MEMB     70       DOPE     H12Y     HAL2     0.900000E-01   1.00800           0
      8789 MEMB     70       DOPE     C313     CTL2    -0.180000       12.0110           0
      8790 MEMB     70       DOPE     H13X     HAL2     0.900000E-01   1.00800           0
      8791 MEMB     70       DOPE     H13Y     HAL2     0.900000E-01   1.00800           0
      8792 MEMB     70       DOPE     C314     CTL2    -0.180000       12.0110           0
      8793 MEMB     70       DOPE     H14X     HAL2     0.900000E-01   1.00800           0
      8794 MEMB     70       DOPE     H14Y     HAL2     0.900000E-01   1.00800           0
      8795 MEMB     70       DOPE     C315     CTL2    -0.180000       12.0110           0
      8796 MEMB     70       DOPE     H15X     HAL2     0.900000E-01   1.00800           0
      8797 MEMB     70       DOPE     H15Y     HAL2     0.900000E-01   1.00800           0
      8798 MEMB     70       DOPE     C316     CTL2    -0.180000       12.0110           0
      8799 MEMB     70       DOPE     H16X     HAL2     0.900000E-01   1.00800           0
      8800 MEMB     70       DOPE     H16Y     HAL2     0.900000E-01   1.00800           0
      8801 MEMB     70       DOPE     C317     CTL2    -0.180000       12.0110           0
      8802 MEMB     70       DOPE     H17X     HAL2     0.900000E-01   1.00800           0
      8803 MEMB     70       DOPE     H17Y     HAL2     0.900000E-01   1.00800           0
      8804 MEMB     70       DOPE     C318     CTL3    -0.270000       12.0110           0
      8805 MEMB     70       DOPE     H18X     HAL3     0.900000E-01   1.00800           0
      8806 MEMB     70       DOPE     H18Y     HAL3     0.900000E-01   1.00800           0
      8807 MEMB     70       DOPE     H18Z     HAL3     0.900000E-01   1.00800           0
      8808 MEMB     71       CHL1     C3       CRL1     0.140000       12.0110           0
      8809 MEMB     71       CHL1     H3       HGA1     0.900000E-01   1.00800           0
      8810 MEMB     71       CHL1     O3       OHL     -0.660000       15.9994           0
      8811 MEMB     71       CHL1     H3'      HOL      0.430000       1.00800           0
      8812 MEMB     71       CHL1     C4       CRL2    -0.180000       12.0110           0
      8813 MEMB     71       CHL1     H4A      HGA2     0.900000E-01   1.00800           0
      8814 MEMB     71       CHL1     H4B      HGA2     0.900000E-01   1.00800           0
      8815 MEMB     71       CHL1     C5       CEL1      0.00000       12.0110           0
      8816 MEMB     71       CHL1     C6       CEL1    -0.150000       12.0110           0
      8817 MEMB     71       CHL1     H6       HEL1     0.150000       1.00800           0
      8818 MEMB     71       CHL1     C7       CRL2    -0.180000       12.0110           0
      8819 MEMB     71       CHL1     H7A      HGA2     0.900000E-01   1.00800           0
      8820 MEMB     71       CHL1     H7B      HGA2     0.900000E-01   1.00800           0
      8821 MEMB     71       CHL1     C8       CRL1    -0.900000E-01   12.0110           0
      8822 MEMB     71       CHL1     H8       HGA1     0.900000E-01   1.00800           0
      8823 MEMB     71       CHL1     C14      CRL1    -0.900000E-01   12.0110           0
      8824 MEMB     71       CHL1     H14      HGA1     0.900000E-01   1.00800           0
      8825 MEMB     71       CHL1     C15      CRL2    -0.180000       12.0110           0
      8826 MEMB     71       CHL1     H15A     HGA2     0.900000E-01   1.00800           0
      8827 MEMB     71       CHL1     H15B     HGA2     0.900000E-01   1.00800           0
      8828 MEMB     71       CHL1     C16      CRL2    -0.180000       12.0110           0
      8829 MEMB     71       CHL1     H16A     HGA2     0.900000E-01   1.00800           0
      8830 MEMB     71       CHL1     H16B     HGA2     0.900000E-01   1.00800           0
      8831 MEMB     71       CHL1     C17      CRL1    -0.900000E-01   12.0110           0
      8832 MEMB     71       CHL1     H17      HGA1     0.900000E-01   1.00800           0
      8833 MEMB     71       CHL1     C13      CRL1      0.00000       12.0110           0
      8834 MEMB     71       CHL1     C18      CTL3    -0.270000       12.0110           0
      8835 MEMB     71       CHL1     H18A     HAL3     0.900000E-01   1.00800           0
      8836 MEMB     71       CHL1     H18B     HAL3     0.900000E-01   1.00800           0
      8837 MEMB     71       CHL1     H18C     HAL3     0.900000E-01   1.00800           0
      8838 MEMB     71       CHL1     C12      CRL2    -0.180000       12.0110           0
      8839 MEMB     71       CHL1     H12A     HGA2     0.900000E-01   1.00800           0
      8840 MEMB     71       CHL1     H12B     HGA2     0.900000E-01   1.00800           0
      8841 MEMB     71       CHL1     C11      CRL2    -0.180000       12.0110           0
      8842 MEMB     71       CHL1     H11A     HGA2     0.900000E-01   1.00800           0
      8843 MEMB     71       CHL1     H11B     HGA2     0.900000E-01   1.00800           0
      8844 MEMB     71       CHL1     C9       CRL1    -0.900000E-01   12.0110           0
      8845 MEMB     71       CHL1     H9       HGA1     0.900000E-01   1.00800           0
      8846 MEMB     71       CHL1     C10      CRL1      0.00000       12.0110           0
      8847 MEMB     71       CHL1     C19      CTL3    -0.270000       12.0110           0
      8848 MEMB     71       CHL1     H19A     HAL3     0.900000E-01   1.00800           0
      8849 MEMB     71       CHL1     H19B     HAL3     0.900000E-01   1.00800           0
      8850 MEMB     71       CHL1     H19C     HAL3     0.900000E-01   1.00800           0
      8851 MEMB     71       CHL1     C1       CRL2    -0.180000       12.0110           0
      8852 MEMB     71       CHL1     H1A      HGA2     0.900000E-01   1.00800           0
      8853 MEMB     71       CHL1     H1B      HGA2     0.900000E-01   1.00800           0
      8854 MEMB     71       CHL1     C2       CRL2    -0.180000       12.0110           0
      8855 MEMB     71       CHL1     H2A      HGA2     0.900000E-01   1.00800           0
      8856 MEMB     71       CHL1     H2B      HGA2     0.900000E-01   1.00800           0
      8857 MEMB     71       CHL1     C20      CTL1    -0.900000E-01   12.0110           0
      8858 MEMB     71       CHL1     H20      HAL1     0.900000E-01   1.00800           0
      8859 MEMB     71       CHL1     C21      CTL3    -0.270000       12.0110           0
      8860 MEMB     71       CHL1     H21A     HAL3     0.900000E-01   1.00800           0
      8861 MEMB     71       CHL1     H21B     HAL3     0.900000E-01   1.00800           0
      8862 MEMB     71       CHL1     H21C     HAL3     0.900000E-01   1.00800           0
      8863 MEMB     71       CHL1     C22      CTL2    -0.180000       12.0110           0
      8864 MEMB     71       CHL1     H22A     HAL2     0.900000E-01   1.00800           0
      8865 MEMB     71       CHL1     H22B     HAL2     0.900000E-01   1.00800           0
      8866 MEMB     71       CHL1     C23      CTL2    -0.180000       12.0110           0
      8867 MEMB     71       CHL1     H23A     HAL2     0.900000E-01   1.00800           0
      8868 MEMB     71       CHL1     H23B     HAL2     0.900000E-01   1.00800           0
      8869 MEMB     71       CHL1     C24      CTL2    -0.180000       12.0110           0
      8870 MEMB     71       CHL1     H24A     HAL2     0.900000E-01   1.00800           0
      8871 MEMB     71       CHL1     H24B     HAL2     0.900000E-01   1.00800           0
      8872 MEMB     71       CHL1     C25      CTL1    -0.900000E-01   12.0110           0
      8873 MEMB     71       CHL1     H25      HAL1     0.900000E-01   1.00800           0
      8874 MEMB     71       CHL1     C26      CTL3    -0.270000       12.0110           0
      8875 MEMB     71       CHL1     H26A     HAL3     0.900000E-01   1.00800           0
      8876 MEMB     71       CHL1     H26B     HAL3     0.900000E-01   1.00800           0
      8877 MEMB     71       CHL1     H26C     HAL3     0.900000E-01   1.00800           0
      8878 MEMB     71       CHL1     C27      CTL3    -0.270000       12.0110           0
      8879 MEMB     71       CHL1     H27A     HAL3     0.900000E-01   1.00800           0
      8880 MEMB     71       CHL1     H27B     HAL3     0.900000E-01   1.00800           0
      8881 MEMB     71       CHL1     H27C     HAL3     0.900000E-01   1.00800           0
      8882 MEMB     72       DOPE     N        NH3L    -0.300000       14.0070           0
      8883 MEMB     72       DOPE     HN1      HCL      0.330000       1.00800           0
      8884 MEMB     72       DOPE     HN2      HCL      0.330000       1.00800           0
      8885 MEMB     72       DOPE     HN3      HCL      0.330000       1.00800           0
      8886 MEMB     72       DOPE     C12      CTL2     0.130000       12.0110           0
      8887 MEMB     72       DOPE     H12A     HAL2     0.900000E-01   1.00800           0
      8888 MEMB     72       DOPE     H12B     HAL2     0.900000E-01   1.00800           0
      8889 MEMB     72       DOPE     C11      CTL2    -0.800000E-01   12.0110           0
      8890 MEMB     72       DOPE     H11A     HAL2     0.900000E-01   1.00800           0
      8891 MEMB     72       DOPE     H11B     HAL2     0.900000E-01   1.00800           0
      8892 MEMB     72       DOPE     P        PL        1.50000       30.9740           0
      8893 MEMB     72       DOPE     O13      O2L     -0.780000       15.9994           0
      8894 MEMB     72       DOPE     O14      O2L     -0.780000       15.9994           0
      8895 MEMB     72       DOPE     O11      OSLP    -0.570000       15.9994           0
      8896 MEMB     72       DOPE     O12      OSLP    -0.570000       15.9994           0
      8897 MEMB     72       DOPE     C1       CTL2    -0.800000E-01   12.0110           0
      8898 MEMB     72       DOPE     HA       HAL2     0.900000E-01   1.00800           0
      8899 MEMB     72       DOPE     HB       HAL2     0.900000E-01   1.00800           0
      8900 MEMB     72       DOPE     C2       CTL1     0.170000       12.0110           0
      8901 MEMB     72       DOPE     HS       HAL1     0.900000E-01   1.00800           0
      8902 MEMB     72       DOPE     O21      OSL     -0.490000       15.9994           0
      8903 MEMB     72       DOPE     C21      CL       0.900000       12.0110           0
      8904 MEMB     72       DOPE     O22      OBL     -0.630000       15.9994           0
      8905 MEMB     72       DOPE     C22      CTL2    -0.220000       12.0110           0
      8906 MEMB     72       DOPE     H2R      HAL2     0.900000E-01   1.00800           0
      8907 MEMB     72       DOPE     H2S      HAL2     0.900000E-01   1.00800           0
      8908 MEMB     72       DOPE     C3       CTL2     0.800000E-01   12.0110           0
      8909 MEMB     72       DOPE     HX       HAL2     0.900000E-01   1.00800           0
      8910 MEMB     72       DOPE     HY       HAL2     0.900000E-01   1.00800           0
      8911 MEMB     72       DOPE     O31      OSL     -0.490000       15.9994           0
      8912 MEMB     72       DOPE     C31      CL       0.900000       12.0110           0
      8913 MEMB     72       DOPE     O32      OBL     -0.630000       15.9994           0
      8914 MEMB     72       DOPE     C32      CTL2    -0.220000       12.0110           0
      8915 MEMB     72       DOPE     H2X      HAL2     0.900000E-01   1.00800           0
      8916 MEMB     72       DOPE     H2Y      HAL2     0.900000E-01   1.00800           0
      8917 MEMB     72       DOPE     C23      CTL2    -0.180000       12.0110           0
      8918 MEMB     72       DOPE     H3R      HAL2     0.900000E-01   1.00800           0
      8919 MEMB     72       DOPE     H3S      HAL2     0.900000E-01   1.00800           0
      8920 MEMB     72       DOPE     C24      CTL2    -0.180000       12.0110           0
      8921 MEMB     72       DOPE     H4R      HAL2     0.900000E-01   1.00800           0
      8922 MEMB     72       DOPE     H4S      HAL2     0.900000E-01   1.00800           0
      8923 MEMB     72       DOPE     C25      CTL2    -0.180000       12.0110           0
      8924 MEMB     72       DOPE     H5R      HAL2     0.900000E-01   1.00800           0
      8925 MEMB     72       DOPE     H5S      HAL2     0.900000E-01   1.00800           0
      8926 MEMB     72       DOPE     C26      CTL2    -0.180000       12.0110           0
      8927 MEMB     72       DOPE     H6R      HAL2     0.900000E-01   1.00800           0
      8928 MEMB     72       DOPE     H6S      HAL2     0.900000E-01   1.00800           0
      8929 MEMB     72       DOPE     C27      CTL2    -0.180000       12.0110           0
      8930 MEMB     72       DOPE     H7R      HAL2     0.900000E-01   1.00800           0
      8931 MEMB     72       DOPE     H7S      HAL2     0.900000E-01   1.00800           0
      8932 MEMB     72       DOPE     C28      CTL2    -0.180000       12.0110           0
      8933 MEMB     72       DOPE     H8R      HAL2     0.900000E-01   1.00800           0
      8934 MEMB     72       DOPE     H8S      HAL2     0.900000E-01   1.00800           0
      8935 MEMB     72       DOPE     C29      CEL1    -0.150000       12.0110           0
      8936 MEMB     72       DOPE     H9R      HEL1     0.150000       1.00800           0
      8937 MEMB     72       DOPE     C210     CEL1    -0.150000       12.0110           0
      8938 MEMB     72       DOPE     H10R     HEL1     0.150000       1.00800           0
      8939 MEMB     72       DOPE     C211     CTL2    -0.180000       12.0110           0
      8940 MEMB     72       DOPE     H11R     HAL2     0.900000E-01   1.00800           0
      8941 MEMB     72       DOPE     H11S     HAL2     0.900000E-01   1.00800           0
      8942 MEMB     72       DOPE     C212     CTL2    -0.180000       12.0110           0
      8943 MEMB     72       DOPE     H12R     HAL2     0.900000E-01   1.00800           0
      8944 MEMB     72       DOPE     H12S     HAL2     0.900000E-01   1.00800           0
      8945 MEMB     72       DOPE     C213     CTL2    -0.180000       12.0110           0
      8946 MEMB     72       DOPE     H13R     HAL2     0.900000E-01   1.00800           0
      8947 MEMB     72       DOPE     H13S     HAL2     0.900000E-01   1.00800           0
      8948 MEMB     72       DOPE     C214     CTL2    -0.180000       12.0110           0
      8949 MEMB     72       DOPE     H14R     HAL2     0.900000E-01   1.00800           0
      8950 MEMB     72       DOPE     H14S     HAL2     0.900000E-01   1.00800           0
      8951 MEMB     72       DOPE     C215     CTL2    -0.180000       12.0110           0
      8952 MEMB     72       DOPE     H15R     HAL2     0.900000E-01   1.00800           0
      8953 MEMB     72       DOPE     H15S     HAL2     0.900000E-01   1.00800           0
      8954 MEMB     72       DOPE     C216     CTL2    -0.180000       12.0110           0
      8955 MEMB     72       DOPE     H16R     HAL2     0.900000E-01   1.00800           0
      8956 MEMB     72       DOPE     H16S     HAL2     0.900000E-01   1.00800           0
      8957 MEMB     72       DOPE     C217     CTL2    -0.180000       12.0110           0
      8958 MEMB     72       DOPE     H17R     HAL2     0.900000E-01   1.00800           0
      8959 MEMB     72       DOPE     H17S     HAL2     0.900000E-01   1.00800           0
      8960 MEMB     72       DOPE     C218     CTL3    -0.270000       12.0110           0
      8961 MEMB     72       DOPE     H18R     HAL3     0.900000E-01   1.00800           0
      8962 MEMB     72       DOPE     H18S     HAL3     0.900000E-01   1.00800           0
      8963 MEMB     72       DOPE     H18T     HAL3     0.900000E-01   1.00800           0
      8964 MEMB     72       DOPE     C33      CTL2    -0.180000       12.0110           0
      8965 MEMB     72       DOPE     H3X      HAL2     0.900000E-01   1.00800           0
      8966 MEMB     72       DOPE     H3Y      HAL2     0.900000E-01   1.00800           0
      8967 MEMB     72       DOPE     C34      CTL2    -0.180000       12.0110           0
      8968 MEMB     72       DOPE     H4X      HAL2     0.900000E-01   1.00800           0
      8969 MEMB     72       DOPE     H4Y      HAL2     0.900000E-01   1.00800           0
      8970 MEMB     72       DOPE     C35      CTL2    -0.180000       12.0110           0
      8971 MEMB     72       DOPE     H5X      HAL2     0.900000E-01   1.00800           0
      8972 MEMB     72       DOPE     H5Y      HAL2     0.900000E-01   1.00800           0
      8973 MEMB     72       DOPE     C36      CTL2    -0.180000       12.0110           0
      8974 MEMB     72       DOPE     H6X      HAL2     0.900000E-01   1.00800           0
      8975 MEMB     72       DOPE     H6Y      HAL2     0.900000E-01   1.00800           0
      8976 MEMB     72       DOPE     C37      CTL2    -0.180000       12.0110           0
      8977 MEMB     72       DOPE     H7X      HAL2     0.900000E-01   1.00800           0
      8978 MEMB     72       DOPE     H7Y      HAL2     0.900000E-01   1.00800           0
      8979 MEMB     72       DOPE     C38      CTL2    -0.180000       12.0110           0
      8980 MEMB     72       DOPE     H8X      HAL2     0.900000E-01   1.00800           0
      8981 MEMB     72       DOPE     H8Y      HAL2     0.900000E-01   1.00800           0
      8982 MEMB     72       DOPE     C39      CEL1    -0.150000       12.0110           0
      8983 MEMB     72       DOPE     H9X      HEL1     0.150000       1.00800           0
      8984 MEMB     72       DOPE     C310     CEL1    -0.150000       12.0110           0
      8985 MEMB     72       DOPE     H10X     HEL1     0.150000       1.00800           0
      8986 MEMB     72       DOPE     C311     CTL2    -0.180000       12.0110           0
      8987 MEMB     72       DOPE     H11X     HAL2     0.900000E-01   1.00800           0
      8988 MEMB     72       DOPE     H11Y     HAL2     0.900000E-01   1.00800           0
      8989 MEMB     72       DOPE     C312     CTL2    -0.180000       12.0110           0
      8990 MEMB     72       DOPE     H12X     HAL2     0.900000E-01   1.00800           0
      8991 MEMB     72       DOPE     H12Y     HAL2     0.900000E-01   1.00800           0
      8992 MEMB     72       DOPE     C313     CTL2    -0.180000       12.0110           0
      8993 MEMB     72       DOPE     H13X     HAL2     0.900000E-01   1.00800           0
      8994 MEMB     72       DOPE     H13Y     HAL2     0.900000E-01   1.00800           0
      8995 MEMB     72       DOPE     C314     CTL2    -0.180000       12.0110           0
      8996 MEMB     72       DOPE     H14X     HAL2     0.900000E-01   1.00800           0
      8997 MEMB     72       DOPE     H14Y     HAL2     0.900000E-01   1.00800           0
      8998 MEMB     72       DOPE     C315     CTL2    -0.180000       12.0110           0
      8999 MEMB     72       DOPE     H15X     HAL2     0.900000E-01   1.00800           0
      9000 MEMB     72       DOPE     H15Y     HAL2     0.900000E-01   1.00800           0
      9001 MEMB     72       DOPE     C316     CTL2    -0.180000       12.0110           0
      9002 MEMB     72       DOPE     H16X     HAL2     0.900000E-01   1.00800           0
      9003 MEMB     72       DOPE     H16Y     HAL2     0.900000E-01   1.00800           0
      9004 MEMB     72       DOPE     C317     CTL2    -0.180000       12.0110           0
      9005 MEMB     72       DOPE     H17X     HAL2     0.900000E-01   1.00800           0
      9006 MEMB     72       DOPE     H17Y     HAL2     0.900000E-01   1.00800           0
      9007 MEMB     72       DOPE     C318     CTL3    -0.270000       12.0110           0
      9008 MEMB     72       DOPE     H18X     HAL3     0.900000E-01   1.00800           0
      9009 MEMB     72       DOPE     H18Y     HAL3     0.900000E-01   1.00800           0
      9010 MEMB     72       DOPE     H18Z     HAL3     0.900000E-01   1.00800           0
      9011 MEMB     73       CHL1     C3       CRL1     0.140000       12.0110           0
      9012 MEMB     73       CHL1     H3       HGA1     0.900000E-01   1.00800           0
      9013 MEMB     73       CHL1     O3       OHL     -0.660000       15.9994           0
      9014 MEMB     73       CHL1     H3'      HOL      0.430000       1.00800           0
      9015 MEMB     73       CHL1     C4       CRL2    -0.180000       12.0110           0
      9016 MEMB     73       CHL1     H4A      HGA2     0.900000E-01   1.00800           0
      9017 MEMB     73       CHL1     H4B      HGA2     0.900000E-01   1.00800           0
      9018 MEMB     73       CHL1     C5       CEL1      0.00000       12.0110           0
      9019 MEMB     73       CHL1     C6       CEL1    -0.150000       12.0110           0
      9020 MEMB     73       CHL1     H6       HEL1     0.150000       1.00800           0
      9021 MEMB     73       CHL1     C7       CRL2    -0.180000       12.0110           0
      9022 MEMB     73       CHL1     H7A      HGA2     0.900000E-01   1.00800           0
      9023 MEMB     73       CHL1     H7B      HGA2     0.900000E-01   1.00800           0
      9024 MEMB     73       CHL1     C8       CRL1    -0.900000E-01   12.0110           0
      9025 MEMB     73       CHL1     H8       HGA1     0.900000E-01   1.00800           0
      9026 MEMB     73       CHL1     C14      CRL1    -0.900000E-01   12.0110           0
      9027 MEMB     73       CHL1     H14      HGA1     0.900000E-01   1.00800           0
      9028 MEMB     73       CHL1     C15      CRL2    -0.180000       12.0110           0
      9029 MEMB     73       CHL1     H15A     HGA2     0.900000E-01   1.00800           0
      9030 MEMB     73       CHL1     H15B     HGA2     0.900000E-01   1.00800           0
      9031 MEMB     73       CHL1     C16      CRL2    -0.180000       12.0110           0
      9032 MEMB     73       CHL1     H16A     HGA2     0.900000E-01   1.00800           0
      9033 MEMB     73       CHL1     H16B     HGA2     0.900000E-01   1.00800           0
      9034 MEMB     73       CHL1     C17      CRL1    -0.900000E-01   12.0110           0
      9035 MEMB     73       CHL1     H17      HGA1     0.900000E-01   1.00800           0
      9036 MEMB     73       CHL1     C13      CRL1      0.00000       12.0110           0
      9037 MEMB     73       CHL1     C18      CTL3    -0.270000       12.0110           0
      9038 MEMB     73       CHL1     H18A     HAL3     0.900000E-01   1.00800           0
      9039 MEMB     73       CHL1     H18B     HAL3     0.900000E-01   1.00800           0
      9040 MEMB     73       CHL1     H18C     HAL3     0.900000E-01   1.00800           0
      9041 MEMB     73       CHL1     C12      CRL2    -0.180000       12.0110           0
      9042 MEMB     73       CHL1     H12A     HGA2     0.900000E-01   1.00800           0
      9043 MEMB     73       CHL1     H12B     HGA2     0.900000E-01   1.00800           0
      9044 MEMB     73       CHL1     C11      CRL2    -0.180000       12.0110           0
      9045 MEMB     73       CHL1     H11A     HGA2     0.900000E-01   1.00800           0
      9046 MEMB     73       CHL1     H11B     HGA2     0.900000E-01   1.00800           0
      9047 MEMB     73       CHL1     C9       CRL1    -0.900000E-01   12.0110           0
      9048 MEMB     73       CHL1     H9       HGA1     0.900000E-01   1.00800           0
      9049 MEMB     73       CHL1     C10      CRL1      0.00000       12.0110           0
      9050 MEMB     73       CHL1     C19      CTL3    -0.270000       12.0110           0
      9051 MEMB     73       CHL1     H19A     HAL3     0.900000E-01   1.00800           0
      9052 MEMB     73       CHL1     H19B     HAL3     0.900000E-01   1.00800           0
      9053 MEMB     73       CHL1     H19C     HAL3     0.900000E-01   1.00800           0
      9054 MEMB     73       CHL1     C1       CRL2    -0.180000       12.0110           0
      9055 MEMB     73       CHL1     H1A      HGA2     0.900000E-01   1.00800           0
      9056 MEMB     73       CHL1     H1B      HGA2     0.900000E-01   1.00800           0
      9057 MEMB     73       CHL1     C2       CRL2    -0.180000       12.0110           0
      9058 MEMB     73       CHL1     H2A      HGA2     0.900000E-01   1.00800           0
      9059 MEMB     73       CHL1     H2B      HGA2     0.900000E-01   1.00800           0
      9060 MEMB     73       CHL1     C20      CTL1    -0.900000E-01   12.0110           0
      9061 MEMB     73       CHL1     H20      HAL1     0.900000E-01   1.00800           0
      9062 MEMB     73       CHL1     C21      CTL3    -0.270000       12.0110           0
      9063 MEMB     73       CHL1     H21A     HAL3     0.900000E-01   1.00800           0
      9064 MEMB     73       CHL1     H21B     HAL3     0.900000E-01   1.00800           0
      9065 MEMB     73       CHL1     H21C     HAL3     0.900000E-01   1.00800           0
      9066 MEMB     73       CHL1     C22      CTL2    -0.180000       12.0110           0
      9067 MEMB     73       CHL1     H22A     HAL2     0.900000E-01   1.00800           0
      9068 MEMB     73       CHL1     H22B     HAL2     0.900000E-01   1.00800           0
      9069 MEMB     73       CHL1     C23      CTL2    -0.180000       12.0110           0
      9070 MEMB     73       CHL1     H23A     HAL2     0.900000E-01   1.00800           0
      9071 MEMB     73       CHL1     H23B     HAL2     0.900000E-01   1.00800           0
      9072 MEMB     73       CHL1     C24      CTL2    -0.180000       12.0110           0
      9073 MEMB     73       CHL1     H24A     HAL2     0.900000E-01   1.00800           0
      9074 MEMB     73       CHL1     H24B     HAL2     0.900000E-01   1.00800           0
      9075 MEMB     73       CHL1     C25      CTL1    -0.900000E-01   12.0110           0
      9076 MEMB     73       CHL1     H25      HAL1     0.900000E-01   1.00800           0
      9077 MEMB     73       CHL1     C26      CTL3    -0.270000       12.0110           0
      9078 MEMB     73       CHL1     H26A     HAL3     0.900000E-01   1.00800           0
      9079 MEMB     73       CHL1     H26B     HAL3     0.900000E-01   1.00800           0
      9080 MEMB     73       CHL1     H26C     HAL3     0.900000E-01   1.00800           0
      9081 MEMB     73       CHL1     C27      CTL3    -0.270000       12.0110           0
      9082 MEMB     73       CHL1     H27A     HAL3     0.900000E-01   1.00800           0
      9083 MEMB     73       CHL1     H27B     HAL3     0.900000E-01   1.00800           0
      9084 MEMB     73       CHL1     H27C     HAL3     0.900000E-01   1.00800           0
      9085 MEMB     74       CHL1     C3       CRL1     0.140000       12.0110           0
      9086 MEMB     74       CHL1     H3       HGA1     0.900000E-01   1.00800           0
      9087 MEMB     74       CHL1     O3       OHL     -0.660000       15.9994           0
      9088 MEMB     74       CHL1     H3'      HOL      0.430000       1.00800           0
      9089 MEMB     74       CHL1     C4       CRL2    -0.180000       12.0110           0
      9090 MEMB     74       CHL1     H4A      HGA2     0.900000E-01   1.00800           0
      9091 MEMB     74       CHL1     H4B      HGA2     0.900000E-01   1.00800           0
      9092 MEMB     74       CHL1     C5       CEL1      0.00000       12.0110           0
      9093 MEMB     74       CHL1     C6       CEL1    -0.150000       12.0110           0
      9094 MEMB     74       CHL1     H6       HEL1     0.150000       1.00800           0
      9095 MEMB     74       CHL1     C7       CRL2    -0.180000       12.0110           0
      9096 MEMB     74       CHL1     H7A      HGA2     0.900000E-01   1.00800           0
      9097 MEMB     74       CHL1     H7B      HGA2     0.900000E-01   1.00800           0
      9098 MEMB     74       CHL1     C8       CRL1    -0.900000E-01   12.0110           0
      9099 MEMB     74       CHL1     H8       HGA1     0.900000E-01   1.00800           0
      9100 MEMB     74       CHL1     C14      CRL1    -0.900000E-01   12.0110           0
      9101 MEMB     74       CHL1     H14      HGA1     0.900000E-01   1.00800           0
      9102 MEMB     74       CHL1     C15      CRL2    -0.180000       12.0110           0
      9103 MEMB     74       CHL1     H15A     HGA2     0.900000E-01   1.00800           0
      9104 MEMB     74       CHL1     H15B     HGA2     0.900000E-01   1.00800           0
      9105 MEMB     74       CHL1     C16      CRL2    -0.180000       12.0110           0
      9106 MEMB     74       CHL1     H16A     HGA2     0.900000E-01   1.00800           0
      9107 MEMB     74       CHL1     H16B     HGA2     0.900000E-01   1.00800           0
      9108 MEMB     74       CHL1     C17      CRL1    -0.900000E-01   12.0110           0
      9109 MEMB     74       CHL1     H17      HGA1     0.900000E-01   1.00800           0
      9110 MEMB     74       CHL1     C13      CRL1      0.00000       12.0110           0
      9111 MEMB     74       CHL1     C18      CTL3    -0.270000       12.0110           0
      9112 MEMB     74       CHL1     H18A     HAL3     0.900000E-01   1.00800           0
      9113 MEMB     74       CHL1     H18B     HAL3     0.900000E-01   1.00800           0
      9114 MEMB     74       CHL1     H18C     HAL3     0.900000E-01   1.00800           0
      9115 MEMB     74       CHL1     C12      CRL2    -0.180000       12.0110           0
      9116 MEMB     74       CHL1     H12A     HGA2     0.900000E-01   1.00800           0
      9117 MEMB     74       CHL1     H12B     HGA2     0.900000E-01   1.00800           0
      9118 MEMB     74       CHL1     C11      CRL2    -0.180000       12.0110           0
      9119 MEMB     74       CHL1     H11A     HGA2     0.900000E-01   1.00800           0
      9120 MEMB     74       CHL1     H11B     HGA2     0.900000E-01   1.00800           0
      9121 MEMB     74       CHL1     C9       CRL1    -0.900000E-01   12.0110           0
      9122 MEMB     74       CHL1     H9       HGA1     0.900000E-01   1.00800           0
      9123 MEMB     74       CHL1     C10      CRL1      0.00000       12.0110           0
      9124 MEMB     74       CHL1     C19      CTL3    -0.270000       12.0110           0
      9125 MEMB     74       CHL1     H19A     HAL3     0.900000E-01   1.00800           0
      9126 MEMB     74       CHL1     H19B     HAL3     0.900000E-01   1.00800           0
      9127 MEMB     74       CHL1     H19C     HAL3     0.900000E-01   1.00800           0
      9128 MEMB     74       CHL1     C1       CRL2    -0.180000       12.0110           0
      9129 MEMB     74       CHL1     H1A      HGA2     0.900000E-01   1.00800           0
      9130 MEMB     74       CHL1     H1B      HGA2     0.900000E-01   1.00800           0
      9131 MEMB     74       CHL1     C2       CRL2    -0.180000       12.0110           0
      9132 MEMB     74       CHL1     H2A      HGA2     0.900000E-01   1.00800           0
      9133 MEMB     74       CHL1     H2B      HGA2     0.900000E-01   1.00800           0
      9134 MEMB     74       CHL1     C20      CTL1    -0.900000E-01   12.0110           0
      9135 MEMB     74       CHL1     H20      HAL1     0.900000E-01   1.00800           0
      9136 MEMB     74       CHL1     C21      CTL3    -0.270000       12.0110           0
      9137 MEMB     74       CHL1     H21A     HAL3     0.900000E-01   1.00800           0
      9138 MEMB     74       CHL1     H21B     HAL3     0.900000E-01   1.00800           0
      9139 MEMB     74       CHL1     H21C     HAL3     0.900000E-01   1.00800           0
      9140 MEMB     74       CHL1     C22      CTL2    -0.180000       12.0110           0
      9141 MEMB     74       CHL1     H22A     HAL2     0.900000E-01   1.00800           0
      9142 MEMB     74       CHL1     H22B     HAL2     0.900000E-01   1.00800           0
      9143 MEMB     74       CHL1     C23      CTL2    -0.180000       12.0110           0
      9144 MEMB     74       CHL1     H23A     HAL2     0.900000E-01   1.00800           0
      9145 MEMB     74       CHL1     H23B     HAL2     0.900000E-01   1.00800           0
      9146 MEMB     74       CHL1     C24      CTL2    -0.180000       12.0110           0
      9147 MEMB     74       CHL1     H24A     HAL2     0.900000E-01   1.00800           0
      9148 MEMB     74       CHL1     H24B     HAL2     0.900000E-01   1.00800           0
      9149 MEMB     74       CHL1     C25      CTL1    -0.900000E-01   12.0110           0
      9150 MEMB     74       CHL1     H25      HAL1     0.900000E-01   1.00800           0
      9151 MEMB     74       CHL1     C26      CTL3    -0.270000       12.0110           0
      9152 MEMB     74       CHL1     H26A     HAL3     0.900000E-01   1.00800           0
      9153 MEMB     74       CHL1     H26B     HAL3     0.900000E-01   1.00800           0
      9154 MEMB     74       CHL1     H26C     HAL3     0.900000E-01   1.00800           0
      9155 MEMB     74       CHL1     C27      CTL3    -0.270000       12.0110           0
      9156 MEMB     74       CHL1     H27A     HAL3     0.900000E-01   1.00800           0
      9157 MEMB     74       CHL1     H27B     HAL3     0.900000E-01   1.00800           0
      9158 MEMB     74       CHL1     H27C     HAL3     0.900000E-01   1.00800           0
      9159 MEMB     75       DOPE     N        NH3L    -0.300000       14.0070           0
      9160 MEMB     75       DOPE     HN1      HCL      0.330000       1.00800           0
      9161 MEMB     75       DOPE     HN2      HCL      0.330000       1.00800           0
      9162 MEMB     75       DOPE     HN3      HCL      0.330000       1.00800           0
      9163 MEMB     75       DOPE     C12      CTL2     0.130000       12.0110           0
      9164 MEMB     75       DOPE     H12A     HAL2     0.900000E-01   1.00800           0
      9165 MEMB     75       DOPE     H12B     HAL2     0.900000E-01   1.00800           0
      9166 MEMB     75       DOPE     C11      CTL2    -0.800000E-01   12.0110           0
      9167 MEMB     75       DOPE     H11A     HAL2     0.900000E-01   1.00800           0
      9168 MEMB     75       DOPE     H11B     HAL2     0.900000E-01   1.00800           0
      9169 MEMB     75       DOPE     P        PL        1.50000       30.9740           0
      9170 MEMB     75       DOPE     O13      O2L     -0.780000       15.9994           0
      9171 MEMB     75       DOPE     O14      O2L     -0.780000       15.9994           0
      9172 MEMB     75       DOPE     O11      OSLP    -0.570000       15.9994           0
      9173 MEMB     75       DOPE     O12      OSLP    -0.570000       15.9994           0
      9174 MEMB     75       DOPE     C1       CTL2    -0.800000E-01   12.0110           0
      9175 MEMB     75       DOPE     HA       HAL2     0.900000E-01   1.00800           0
      9176 MEMB     75       DOPE     HB       HAL2     0.900000E-01   1.00800           0
      9177 MEMB     75       DOPE     C2       CTL1     0.170000       12.0110           0
      9178 MEMB     75       DOPE     HS       HAL1     0.900000E-01   1.00800           0
      9179 MEMB     75       DOPE     O21      OSL     -0.490000       15.9994           0
      9180 MEMB     75       DOPE     C21      CL       0.900000       12.0110           0
      9181 MEMB     75       DOPE     O22      OBL     -0.630000       15.9994           0
      9182 MEMB     75       DOPE     C22      CTL2    -0.220000       12.0110           0
      9183 MEMB     75       DOPE     H2R      HAL2     0.900000E-01   1.00800           0
      9184 MEMB     75       DOPE     H2S      HAL2     0.900000E-01   1.00800           0
      9185 MEMB     75       DOPE     C3       CTL2     0.800000E-01   12.0110           0
      9186 MEMB     75       DOPE     HX       HAL2     0.900000E-01   1.00800           0
      9187 MEMB     75       DOPE     HY       HAL2     0.900000E-01   1.00800           0
      9188 MEMB     75       DOPE     O31      OSL     -0.490000       15.9994           0
      9189 MEMB     75       DOPE     C31      CL       0.900000       12.0110           0
      9190 MEMB     75       DOPE     O32      OBL     -0.630000       15.9994           0
      9191 MEMB     75       DOPE     C32      CTL2    -0.220000       12.0110           0
      9192 MEMB     75       DOPE     H2X      HAL2     0.900000E-01   1.00800           0
      9193 MEMB     75       DOPE     H2Y      HAL2     0.900000E-01   1.00800           0
      9194 MEMB     75       DOPE     C23      CTL2    -0.180000       12.0110           0
      9195 MEMB     75       DOPE     H3R      HAL2     0.900000E-01   1.00800           0
      9196 MEMB     75       DOPE     H3S      HAL2     0.900000E-01   1.00800           0
      9197 MEMB     75       DOPE     C24      CTL2    -0.180000       12.0110           0
      9198 MEMB     75       DOPE     H4R      HAL2     0.900000E-01   1.00800           0
      9199 MEMB     75       DOPE     H4S      HAL2     0.900000E-01   1.00800           0
      9200 MEMB     75       DOPE     C25      CTL2    -0.180000       12.0110           0
      9201 MEMB     75       DOPE     H5R      HAL2     0.900000E-01   1.00800           0
      9202 MEMB     75       DOPE     H5S      HAL2     0.900000E-01   1.00800           0
      9203 MEMB     75       DOPE     C26      CTL2    -0.180000       12.0110           0
      9204 MEMB     75       DOPE     H6R      HAL2     0.900000E-01   1.00800           0
      9205 MEMB     75       DOPE     H6S      HAL2     0.900000E-01   1.00800           0
      9206 MEMB     75       DOPE     C27      CTL2    -0.180000       12.0110           0
      9207 MEMB     75       DOPE     H7R      HAL2     0.900000E-01   1.00800           0
      9208 MEMB     75       DOPE     H7S      HAL2     0.900000E-01   1.00800           0
      9209 MEMB     75       DOPE     C28      CTL2    -0.180000       12.0110           0
      9210 MEMB     75       DOPE     H8R      HAL2     0.900000E-01   1.00800           0
      9211 MEMB     75       DOPE     H8S      HAL2     0.900000E-01   1.00800           0
      9212 MEMB     75       DOPE     C29      CEL1    -0.150000       12.0110           0
      9213 MEMB     75       DOPE     H9R      HEL1     0.150000       1.00800           0
      9214 MEMB     75       DOPE     C210     CEL1    -0.150000       12.0110           0
      9215 MEMB     75       DOPE     H10R     HEL1     0.150000       1.00800           0
      9216 MEMB     75       DOPE     C211     CTL2    -0.180000       12.0110           0
      9217 MEMB     75       DOPE     H11R     HAL2     0.900000E-01   1.00800           0
      9218 MEMB     75       DOPE     H11S     HAL2     0.900000E-01   1.00800           0
      9219 MEMB     75       DOPE     C212     CTL2    -0.180000       12.0110           0
      9220 MEMB     75       DOPE     H12R     HAL2     0.900000E-01   1.00800           0
      9221 MEMB     75       DOPE     H12S     HAL2     0.900000E-01   1.00800           0
      9222 MEMB     75       DOPE     C213     CTL2    -0.180000       12.0110           0
      9223 MEMB     75       DOPE     H13R     HAL2     0.900000E-01   1.00800           0
      9224 MEMB     75       DOPE     H13S     HAL2     0.900000E-01   1.00800           0
      9225 MEMB     75       DOPE     C214     CTL2    -0.180000       12.0110           0
      9226 MEMB     75       DOPE     H14R     HAL2     0.900000E-01   1.00800           0
      9227 MEMB     75       DOPE     H14S     HAL2     0.900000E-01   1.00800           0
      9228 MEMB     75       DOPE     C215     CTL2    -0.180000       12.0110           0
      9229 MEMB     75       DOPE     H15R     HAL2     0.900000E-01   1.00800           0
      9230 MEMB     75       DOPE     H15S     HAL2     0.900000E-01   1.00800           0
      9231 MEMB     75       DOPE     C216     CTL2    -0.180000       12.0110           0
      9232 MEMB     75       DOPE     H16R     HAL2     0.900000E-01   1.00800           0
      9233 MEMB     75       DOPE     H16S     HAL2     0.900000E-01   1.00800           0
      9234 MEMB     75       DOPE     C217     CTL2    -0.180000       12.0110           0
      9235 MEMB     75       DOPE     H17R     HAL2     0.900000E-01   1.00800           0
      9236 MEMB     75       DOPE     H17S     HAL2     0.900000E-01   1.00800           0
      9237 MEMB     75       DOPE     C218     CTL3    -0.270000       12.0110           0
      9238 MEMB     75       DOPE     H18R     HAL3     0.900000E-01   1.00800           0
      9239 MEMB     75       DOPE     H18S     HAL3     0.900000E-01   1.00800           0
      9240 MEMB     75       DOPE     H18T     HAL3     0.900000E-01   1.00800           0
      9241 MEMB     75       DOPE     C33      CTL2    -0.180000       12.0110           0
      9242 MEMB     75       DOPE     H3X      HAL2     0.900000E-01   1.00800           0
      9243 MEMB     75       DOPE     H3Y      HAL2     0.900000E-01   1.00800           0
      9244 MEMB     75       DOPE     C34      CTL2    -0.180000       12.0110           0
      9245 MEMB     75       DOPE     H4X      HAL2     0.900000E-01   1.00800           0
      9246 MEMB     75       DOPE     H4Y      HAL2     0.900000E-01   1.00800           0
      9247 MEMB     75       DOPE     C35      CTL2    -0.180000       12.0110           0
      9248 MEMB     75       DOPE     H5X      HAL2     0.900000E-01   1.00800           0
      9249 MEMB     75       DOPE     H5Y      HAL2     0.900000E-01   1.00800           0
      9250 MEMB     75       DOPE     C36      CTL2    -0.180000       12.0110           0
      9251 MEMB     75       DOPE     H6X      HAL2     0.900000E-01   1.00800           0
      9252 MEMB     75       DOPE     H6Y      HAL2     0.900000E-01   1.00800           0
      9253 MEMB     75       DOPE     C37      CTL2    -0.180000       12.0110           0
      9254 MEMB     75       DOPE     H7X      HAL2     0.900000E-01   1.00800           0
      9255 MEMB     75       DOPE     H7Y      HAL2     0.900000E-01   1.00800           0
      9256 MEMB     75       DOPE     C38      CTL2    -0.180000       12.0110           0
      9257 MEMB     75       DOPE     H8X      HAL2     0.900000E-01   1.00800           0
      9258 MEMB     75       DOPE     H8Y      HAL2     0.900000E-01   1.00800           0
      9259 MEMB     75       DOPE     C39      CEL1    -0.150000       12.0110           0
      9260 MEMB     75       DOPE     H9X      HEL1     0.150000       1.00800           0
      9261 MEMB     75       DOPE     C310     CEL1    -0.150000       12.0110           0
      9262 MEMB     75       DOPE     H10X     HEL1     0.150000       1.00800           0
      9263 MEMB     75       DOPE     C311     CTL2    -0.180000       12.0110           0
      9264 MEMB     75       DOPE     H11X     HAL2     0.900000E-01   1.00800           0
      9265 MEMB     75       DOPE     H11Y     HAL2     0.900000E-01   1.00800           0
      9266 MEMB     75       DOPE     C312     CTL2    -0.180000       12.0110           0
      9267 MEMB     75       DOPE     H12X     HAL2     0.900000E-01   1.00800           0
      9268 MEMB     75       DOPE     H12Y     HAL2     0.900000E-01   1.00800           0
      9269 MEMB     75       DOPE     C313     CTL2    -0.180000       12.0110           0
      9270 MEMB     75       DOPE     H13X     HAL2     0.900000E-01   1.00800           0
      9271 MEMB     75       DOPE     H13Y     HAL2     0.900000E-01   1.00800           0
      9272 MEMB     75       DOPE     C314     CTL2    -0.180000       12.0110           0
      9273 MEMB     75       DOPE     H14X     HAL2     0.900000E-01   1.00800           0
      9274 MEMB     75       DOPE     H14Y     HAL2     0.900000E-01   1.00800           0
      9275 MEMB     75       DOPE     C315     CTL2    -0.180000       12.0110           0
      9276 MEMB     75       DOPE     H15X     HAL2     0.900000E-01   1.00800           0
      9277 MEMB     75       DOPE     H15Y     HAL2     0.900000E-01   1.00800           0
      9278 MEMB     75       DOPE     C316     CTL2    -0.180000       12.0110           0
      9279 MEMB     75       DOPE     H16X     HAL2     0.900000E-01   1.00800           0
      9280 MEMB     75       DOPE     H16Y     HAL2     0.900000E-01   1.00800           0
      9281 MEMB     75       DOPE     C317     CTL2    -0.180000       12.0110           0
      9282 MEMB     75       DOPE     H17X     HAL2     0.900000E-01   1.00800           0
      9283 MEMB     75       DOPE     H17Y     HAL2     0.900000E-01   1.00800           0
      9284 MEMB     75       DOPE     C318     CTL3    -0.270000       12.0110           0
      9285 MEMB     75       DOPE     H18X     HAL3     0.900000E-01   1.00800           0
      9286 MEMB     75       DOPE     H18Y     HAL3     0.900000E-01   1.00800           0
      9287 MEMB     75       DOPE     H18Z     HAL3     0.900000E-01   1.00800           0
      9288 MEMB     76       DOPC     N        NTL     -0.600000       14.0070           0
      9289 MEMB     76       DOPC     C12      CTL2    -0.100000       12.0110           0
      9290 MEMB     76       DOPC     H12A     HL       0.250000       1.00800           0
      9291 MEMB     76       DOPC     H12B     HL       0.250000       1.00800           0
      9292 MEMB     76       DOPC     C13      CTL5    -0.350000       12.0110           0
      9293 MEMB     76       DOPC     H13A     HL       0.250000       1.00800           0
      9294 MEMB     76       DOPC     H13B     HL       0.250000       1.00800           0
      9295 MEMB     76       DOPC     H13C     HL       0.250000       1.00800           0
      9296 MEMB     76       DOPC     C14      CTL5    -0.350000       12.0110           0
      9297 MEMB     76       DOPC     H14A     HL       0.250000       1.00800           0
      9298 MEMB     76       DOPC     H14B     HL       0.250000       1.00800           0
      9299 MEMB     76       DOPC     H14C     HL       0.250000       1.00800           0
      9300 MEMB     76       DOPC     C15      CTL5    -0.350000       12.0110           0
      9301 MEMB     76       DOPC     H15A     HL       0.250000       1.00800           0
      9302 MEMB     76       DOPC     H15B     HL       0.250000       1.00800           0
      9303 MEMB     76       DOPC     H15C     HL       0.250000       1.00800           0
      9304 MEMB     76       DOPC     C11      CTL2    -0.800000E-01   12.0110           0
      9305 MEMB     76       DOPC     H11A     HAL2     0.900000E-01   1.00800           0
      9306 MEMB     76       DOPC     H11B     HAL2     0.900000E-01   1.00800           0
      9307 MEMB     76       DOPC     P        PL        1.50000       30.9740           0
      9308 MEMB     76       DOPC     O13      O2L     -0.780000       15.9994           0
      9309 MEMB     76       DOPC     O14      O2L     -0.780000       15.9994           0
      9310 MEMB     76       DOPC     O12      OSLP    -0.570000       15.9994           0
      9311 MEMB     76       DOPC     O11      OSLP    -0.570000       15.9994           0
      9312 MEMB     76       DOPC     C1       CTL2    -0.800000E-01   12.0110           0
      9313 MEMB     76       DOPC     HA       HAL2     0.900000E-01   1.00800           0
      9314 MEMB     76       DOPC     HB       HAL2     0.900000E-01   1.00800           0
      9315 MEMB     76       DOPC     C2       CTL1     0.170000       12.0110           0
      9316 MEMB     76       DOPC     HS       HAL1     0.900000E-01   1.00800           0
      9317 MEMB     76       DOPC     O21      OSL     -0.490000       15.9994           0
      9318 MEMB     76       DOPC     C21      CL       0.900000       12.0110           0
      9319 MEMB     76       DOPC     O22      OBL     -0.630000       15.9994           0
      9320 MEMB     76       DOPC     C22      CTL2    -0.220000       12.0110           0
      9321 MEMB     76       DOPC     H2R      HAL2     0.900000E-01   1.00800           0
      9322 MEMB     76       DOPC     H2S      HAL2     0.900000E-01   1.00800           0
      9323 MEMB     76       DOPC     C3       CTL2     0.800000E-01   12.0110           0
      9324 MEMB     76       DOPC     HX       HAL2     0.900000E-01   1.00800           0
      9325 MEMB     76       DOPC     HY       HAL2     0.900000E-01   1.00800           0
      9326 MEMB     76       DOPC     O31      OSL     -0.490000       15.9994           0
      9327 MEMB     76       DOPC     C31      CL       0.900000       12.0110           0
      9328 MEMB     76       DOPC     O32      OBL     -0.630000       15.9994           0
      9329 MEMB     76       DOPC     C32      CTL2    -0.220000       12.0110           0
      9330 MEMB     76       DOPC     H2X      HAL2     0.900000E-01   1.00800           0
      9331 MEMB     76       DOPC     H2Y      HAL2     0.900000E-01   1.00800           0
      9332 MEMB     76       DOPC     C23      CTL2    -0.180000       12.0110           0
      9333 MEMB     76       DOPC     H3R      HAL2     0.900000E-01   1.00800           0
      9334 MEMB     76       DOPC     H3S      HAL2     0.900000E-01   1.00800           0
      9335 MEMB     76       DOPC     C24      CTL2    -0.180000       12.0110           0
      9336 MEMB     76       DOPC     H4R      HAL2     0.900000E-01   1.00800           0
      9337 MEMB     76       DOPC     H4S      HAL2     0.900000E-01   1.00800           0
      9338 MEMB     76       DOPC     C25      CTL2    -0.180000       12.0110           0
      9339 MEMB     76       DOPC     H5R      HAL2     0.900000E-01   1.00800           0
      9340 MEMB     76       DOPC     H5S      HAL2     0.900000E-01   1.00800           0
      9341 MEMB     76       DOPC     C26      CTL2    -0.180000       12.0110           0
      9342 MEMB     76       DOPC     H6R      HAL2     0.900000E-01   1.00800           0
      9343 MEMB     76       DOPC     H6S      HAL2     0.900000E-01   1.00800           0
      9344 MEMB     76       DOPC     C27      CTL2    -0.180000       12.0110           0
      9345 MEMB     76       DOPC     H7R      HAL2     0.900000E-01   1.00800           0
      9346 MEMB     76       DOPC     H7S      HAL2     0.900000E-01   1.00800           0
      9347 MEMB     76       DOPC     C28      CTL2    -0.180000       12.0110           0
      9348 MEMB     76       DOPC     H8R      HAL2     0.900000E-01   1.00800           0
      9349 MEMB     76       DOPC     H8S      HAL2     0.900000E-01   1.00800           0
      9350 MEMB     76       DOPC     C29      CEL1    -0.150000       12.0110           0
      9351 MEMB     76       DOPC     H9R      HEL1     0.150000       1.00800           0
      9352 MEMB     76       DOPC     C210     CEL1    -0.150000       12.0110           0
      9353 MEMB     76       DOPC     H10R     HEL1     0.150000       1.00800           0
      9354 MEMB     76       DOPC     C211     CTL2    -0.180000       12.0110           0
      9355 MEMB     76       DOPC     H11R     HAL2     0.900000E-01   1.00800           0
      9356 MEMB     76       DOPC     H11S     HAL2     0.900000E-01   1.00800           0
      9357 MEMB     76       DOPC     C212     CTL2    -0.180000       12.0110           0
      9358 MEMB     76       DOPC     H12R     HAL2     0.900000E-01   1.00800           0
      9359 MEMB     76       DOPC     H12S     HAL2     0.900000E-01   1.00800           0
      9360 MEMB     76       DOPC     C213     CTL2    -0.180000       12.0110           0
      9361 MEMB     76       DOPC     H13R     HAL2     0.900000E-01   1.00800           0
      9362 MEMB     76       DOPC     H13S     HAL2     0.900000E-01   1.00800           0
      9363 MEMB     76       DOPC     C214     CTL2    -0.180000       12.0110           0
      9364 MEMB     76       DOPC     H14R     HAL2     0.900000E-01   1.00800           0
      9365 MEMB     76       DOPC     H14S     HAL2     0.900000E-01   1.00800           0
      9366 MEMB     76       DOPC     C215     CTL2    -0.180000       12.0110           0
      9367 MEMB     76       DOPC     H15R     HAL2     0.900000E-01   1.00800           0
      9368 MEMB     76       DOPC     H15S     HAL2     0.900000E-01   1.00800           0
      9369 MEMB     76       DOPC     C216     CTL2    -0.180000       12.0110           0
      9370 MEMB     76       DOPC     H16R     HAL2     0.900000E-01   1.00800           0
      9371 MEMB     76       DOPC     H16S     HAL2     0.900000E-01   1.00800           0
      9372 MEMB     76       DOPC     C217     CTL2    -0.180000       12.0110           0
      9373 MEMB     76       DOPC     H17R     HAL2     0.900000E-01   1.00800           0
      9374 MEMB     76       DOPC     H17S     HAL2     0.900000E-01   1.00800           0
      9375 MEMB     76       DOPC     C218     CTL3    -0.270000       12.0110           0
      9376 MEMB     76       DOPC     H18R     HAL3     0.900000E-01   1.00800           0
      9377 MEMB     76       DOPC     H18S     HAL3     0.900000E-01   1.00800           0
      9378 MEMB     76       DOPC     H18T     HAL3     0.900000E-01   1.00800           0
      9379 MEMB     76       DOPC     C33      CTL2    -0.180000       12.0110           0
      9380 MEMB     76       DOPC     H3X      HAL2     0.900000E-01   1.00800           0
      9381 MEMB     76       DOPC     H3Y      HAL2     0.900000E-01   1.00800           0
      9382 MEMB     76       DOPC     C34      CTL2    -0.180000       12.0110           0
      9383 MEMB     76       DOPC     H4X      HAL2     0.900000E-01   1.00800           0
      9384 MEMB     76       DOPC     H4Y      HAL2     0.900000E-01   1.00800           0
      9385 MEMB     76       DOPC     C35      CTL2    -0.180000       12.0110           0
      9386 MEMB     76       DOPC     H5X      HAL2     0.900000E-01   1.00800           0
      9387 MEMB     76       DOPC     H5Y      HAL2     0.900000E-01   1.00800           0
      9388 MEMB     76       DOPC     C36      CTL2    -0.180000       12.0110           0
      9389 MEMB     76       DOPC     H6X      HAL2     0.900000E-01   1.00800           0
      9390 MEMB     76       DOPC     H6Y      HAL2     0.900000E-01   1.00800           0
      9391 MEMB     76       DOPC     C37      CTL2    -0.180000       12.0110           0
      9392 MEMB     76       DOPC     H7X      HAL2     0.900000E-01   1.00800           0
      9393 MEMB     76       DOPC     H7Y      HAL2     0.900000E-01   1.00800           0
      9394 MEMB     76       DOPC     C38      CTL2    -0.180000       12.0110           0
      9395 MEMB     76       DOPC     H8X      HAL2     0.900000E-01   1.00800           0
      9396 MEMB     76       DOPC     H8Y      HAL2     0.900000E-01   1.00800           0
      9397 MEMB     76       DOPC     C39      CEL1    -0.150000       12.0110           0
      9398 MEMB     76       DOPC     H9X      HEL1     0.150000       1.00800           0
      9399 MEMB     76       DOPC     C310     CEL1    -0.150000       12.0110           0
      9400 MEMB     76       DOPC     H10X     HEL1     0.150000       1.00800           0
      9401 MEMB     76       DOPC     C311     CTL2    -0.180000       12.0110           0
      9402 MEMB     76       DOPC     H11X     HAL2     0.900000E-01   1.00800           0
      9403 MEMB     76       DOPC     H11Y     HAL2     0.900000E-01   1.00800           0
      9404 MEMB     76       DOPC     C312     CTL2    -0.180000       12.0110           0
      9405 MEMB     76       DOPC     H12X     HAL2     0.900000E-01   1.00800           0
      9406 MEMB     76       DOPC     H12Y     HAL2     0.900000E-01   1.00800           0
      9407 MEMB     76       DOPC     C313     CTL2    -0.180000       12.0110           0
      9408 MEMB     76       DOPC     H13X     HAL2     0.900000E-01   1.00800           0
      9409 MEMB     76       DOPC     H13Y     HAL2     0.900000E-01   1.00800           0
      9410 MEMB     76       DOPC     C314     CTL2    -0.180000       12.0110           0
      9411 MEMB     76       DOPC     H14X     HAL2     0.900000E-01   1.00800           0
      9412 MEMB     76       DOPC     H14Y     HAL2     0.900000E-01   1.00800           0
      9413 MEMB     76       DOPC     C315     CTL2    -0.180000       12.0110           0
      9414 MEMB     76       DOPC     H15X     HAL2     0.900000E-01   1.00800           0
      9415 MEMB     76       DOPC     H15Y     HAL2     0.900000E-01   1.00800           0
      9416 MEMB     76       DOPC     C316     CTL2    -0.180000       12.0110           0
      9417 MEMB     76       DOPC     H16X     HAL2     0.900000E-01   1.00800           0
      9418 MEMB     76       DOPC     H16Y     HAL2     0.900000E-01   1.00800           0
      9419 MEMB     76       DOPC     C317     CTL2    -0.180000       12.0110           0
      9420 MEMB     76       DOPC     H17X     HAL2     0.900000E-01   1.00800           0
      9421 MEMB     76       DOPC     H17Y     HAL2     0.900000E-01   1.00800           0
      9422 MEMB     76       DOPC     C318     CTL3    -0.270000       12.0110           0
      9423 MEMB     76       DOPC     H18X     HAL3     0.900000E-01   1.00800           0
      9424 MEMB     76       DOPC     H18Y     HAL3     0.900000E-01   1.00800           0
      9425 MEMB     76       DOPC     H18Z     HAL3     0.900000E-01   1.00800           0
      9426 MEMB     77       DOPC     N        NTL     -0.600000       14.0070           0
      9427 MEMB     77       DOPC     C12      CTL2    -0.100000       12.0110           0
      9428 MEMB     77       DOPC     H12A     HL       0.250000       1.00800           0
      9429 MEMB     77       DOPC     H12B     HL       0.250000       1.00800           0
      9430 MEMB     77       DOPC     C13      CTL5    -0.350000       12.0110           0
      9431 MEMB     77       DOPC     H13A     HL       0.250000       1.00800           0
      9432 MEMB     77       DOPC     H13B     HL       0.250000       1.00800           0
      9433 MEMB     77       DOPC     H13C     HL       0.250000       1.00800           0
      9434 MEMB     77       DOPC     C14      CTL5    -0.350000       12.0110           0
      9435 MEMB     77       DOPC     H14A     HL       0.250000       1.00800           0
      9436 MEMB     77       DOPC     H14B     HL       0.250000       1.00800           0
      9437 MEMB     77       DOPC     H14C     HL       0.250000       1.00800           0
      9438 MEMB     77       DOPC     C15      CTL5    -0.350000       12.0110           0
      9439 MEMB     77       DOPC     H15A     HL       0.250000       1.00800           0
      9440 MEMB     77       DOPC     H15B     HL       0.250000       1.00800           0
      9441 MEMB     77       DOPC     H15C     HL       0.250000       1.00800           0
      9442 MEMB     77       DOPC     C11      CTL2    -0.800000E-01   12.0110           0
      9443 MEMB     77       DOPC     H11A     HAL2     0.900000E-01   1.00800           0
      9444 MEMB     77       DOPC     H11B     HAL2     0.900000E-01   1.00800           0
      9445 MEMB     77       DOPC     P        PL        1.50000       30.9740           0
      9446 MEMB     77       DOPC     O13      O2L     -0.780000       15.9994           0
      9447 MEMB     77       DOPC     O14      O2L     -0.780000       15.9994           0
      9448 MEMB     77       DOPC     O12      OSLP    -0.570000       15.9994           0
      9449 MEMB     77       DOPC     O11      OSLP    -0.570000       15.9994           0
      9450 MEMB     77       DOPC     C1       CTL2    -0.800000E-01   12.0110           0
      9451 MEMB     77       DOPC     HA       HAL2     0.900000E-01   1.00800           0
      9452 MEMB     77       DOPC     HB       HAL2     0.900000E-01   1.00800           0
      9453 MEMB     77       DOPC     C2       CTL1     0.170000       12.0110           0
      9454 MEMB     77       DOPC     HS       HAL1     0.900000E-01   1.00800           0
      9455 MEMB     77       DOPC     O21      OSL     -0.490000       15.9994           0
      9456 MEMB     77       DOPC     C21      CL       0.900000       12.0110           0
      9457 MEMB     77       DOPC     O22      OBL     -0.630000       15.9994           0
      9458 MEMB     77       DOPC     C22      CTL2    -0.220000       12.0110           0
      9459 MEMB     77       DOPC     H2R      HAL2     0.900000E-01   1.00800           0
      9460 MEMB     77       DOPC     H2S      HAL2     0.900000E-01   1.00800           0
      9461 MEMB     77       DOPC     C3       CTL2     0.800000E-01   12.0110           0
      9462 MEMB     77       DOPC     HX       HAL2     0.900000E-01   1.00800           0
      9463 MEMB     77       DOPC     HY       HAL2     0.900000E-01   1.00800           0
      9464 MEMB     77       DOPC     O31      OSL     -0.490000       15.9994           0
      9465 MEMB     77       DOPC     C31      CL       0.900000       12.0110           0
      9466 MEMB     77       DOPC     O32      OBL     -0.630000       15.9994           0
      9467 MEMB     77       DOPC     C32      CTL2    -0.220000       12.0110           0
      9468 MEMB     77       DOPC     H2X      HAL2     0.900000E-01   1.00800           0
      9469 MEMB     77       DOPC     H2Y      HAL2     0.900000E-01   1.00800           0
      9470 MEMB     77       DOPC     C23      CTL2    -0.180000       12.0110           0
      9471 MEMB     77       DOPC     H3R      HAL2     0.900000E-01   1.00800           0
      9472 MEMB     77       DOPC     H3S      HAL2     0.900000E-01   1.00800           0
      9473 MEMB     77       DOPC     C24      CTL2    -0.180000       12.0110           0
      9474 MEMB     77       DOPC     H4R      HAL2     0.900000E-01   1.00800           0
      9475 MEMB     77       DOPC     H4S      HAL2     0.900000E-01   1.00800           0
      9476 MEMB     77       DOPC     C25      CTL2    -0.180000       12.0110           0
      9477 MEMB     77       DOPC     H5R      HAL2     0.900000E-01   1.00800           0
      9478 MEMB     77       DOPC     H5S      HAL2     0.900000E-01   1.00800           0
      9479 MEMB     77       DOPC     C26      CTL2    -0.180000       12.0110           0
      9480 MEMB     77       DOPC     H6R      HAL2     0.900000E-01   1.00800           0
      9481 MEMB     77       DOPC     H6S      HAL2     0.900000E-01   1.00800           0
      9482 MEMB     77       DOPC     C27      CTL2    -0.180000       12.0110           0
      9483 MEMB     77       DOPC     H7R      HAL2     0.900000E-01   1.00800           0
      9484 MEMB     77       DOPC     H7S      HAL2     0.900000E-01   1.00800           0
      9485 MEMB     77       DOPC     C28      CTL2    -0.180000       12.0110           0
      9486 MEMB     77       DOPC     H8R      HAL2     0.900000E-01   1.00800           0
      9487 MEMB     77       DOPC     H8S      HAL2     0.900000E-01   1.00800           0
      9488 MEMB     77       DOPC     C29      CEL1    -0.150000       12.0110           0
      9489 MEMB     77       DOPC     H9R      HEL1     0.150000       1.00800           0
      9490 MEMB     77       DOPC     C210     CEL1    -0.150000       12.0110           0
      9491 MEMB     77       DOPC     H10R     HEL1     0.150000       1.00800           0
      9492 MEMB     77       DOPC     C211     CTL2    -0.180000       12.0110           0
      9493 MEMB     77       DOPC     H11R     HAL2     0.900000E-01   1.00800           0
      9494 MEMB     77       DOPC     H11S     HAL2     0.900000E-01   1.00800           0
      9495 MEMB     77       DOPC     C212     CTL2    -0.180000       12.0110           0
      9496 MEMB     77       DOPC     H12R     HAL2     0.900000E-01   1.00800           0
      9497 MEMB     77       DOPC     H12S     HAL2     0.900000E-01   1.00800           0
      9498 MEMB     77       DOPC     C213     CTL2    -0.180000       12.0110           0
      9499 MEMB     77       DOPC     H13R     HAL2     0.900000E-01   1.00800           0
      9500 MEMB     77       DOPC     H13S     HAL2     0.900000E-01   1.00800           0
      9501 MEMB     77       DOPC     C214     CTL2    -0.180000       12.0110           0
      9502 MEMB     77       DOPC     H14R     HAL2     0.900000E-01   1.00800           0
      9503 MEMB     77       DOPC     H14S     HAL2     0.900000E-01   1.00800           0
      9504 MEMB     77       DOPC     C215     CTL2    -0.180000       12.0110           0
      9505 MEMB     77       DOPC     H15R     HAL2     0.900000E-01   1.00800           0
      9506 MEMB     77       DOPC     H15S     HAL2     0.900000E-01   1.00800           0
      9507 MEMB     77       DOPC     C216     CTL2    -0.180000       12.0110           0
      9508 MEMB     77       DOPC     H16R     HAL2     0.900000E-01   1.00800           0
      9509 MEMB     77       DOPC     H16S     HAL2     0.900000E-01   1.00800           0
      9510 MEMB     77       DOPC     C217     CTL2    -0.180000       12.0110           0
      9511 MEMB     77       DOPC     H17R     HAL2     0.900000E-01   1.00800           0
      9512 MEMB     77       DOPC     H17S     HAL2     0.900000E-01   1.00800           0
      9513 MEMB     77       DOPC     C218     CTL3    -0.270000       12.0110           0
      9514 MEMB     77       DOPC     H18R     HAL3     0.900000E-01   1.00800           0
      9515 MEMB     77       DOPC     H18S     HAL3     0.900000E-01   1.00800           0
      9516 MEMB     77       DOPC     H18T     HAL3     0.900000E-01   1.00800           0
      9517 MEMB     77       DOPC     C33      CTL2    -0.180000       12.0110           0
      9518 MEMB     77       DOPC     H3X      HAL2     0.900000E-01   1.00800           0
      9519 MEMB     77       DOPC     H3Y      HAL2     0.900000E-01   1.00800           0
      9520 MEMB     77       DOPC     C34      CTL2    -0.180000       12.0110           0
      9521 MEMB     77       DOPC     H4X      HAL2     0.900000E-01   1.00800           0
      9522 MEMB     77       DOPC     H4Y      HAL2     0.900000E-01   1.00800           0
      9523 MEMB     77       DOPC     C35      CTL2    -0.180000       12.0110           0
      9524 MEMB     77       DOPC     H5X      HAL2     0.900000E-01   1.00800           0
      9525 MEMB     77       DOPC     H5Y      HAL2     0.900000E-01   1.00800           0
      9526 MEMB     77       DOPC     C36      CTL2    -0.180000       12.0110           0
      9527 MEMB     77       DOPC     H6X      HAL2     0.900000E-01   1.00800           0
      9528 MEMB     77       DOPC     H6Y      HAL2     0.900000E-01   1.00800           0
      9529 MEMB     77       DOPC     C37      CTL2    -0.180000       12.0110           0
      9530 MEMB     77       DOPC     H7X      HAL2     0.900000E-01   1.00800           0
      9531 MEMB     77       DOPC     H7Y      HAL2     0.900000E-01   1.00800           0
      9532 MEMB     77       DOPC     C38      CTL2    -0.180000       12.0110           0
      9533 MEMB     77       DOPC     H8X      HAL2     0.900000E-01   1.00800           0
      9534 MEMB     77       DOPC     H8Y      HAL2     0.900000E-01   1.00800           0
      9535 MEMB     77       DOPC     C39      CEL1    -0.150000       12.0110           0
      9536 MEMB     77       DOPC     H9X      HEL1     0.150000       1.00800           0
      9537 MEMB     77       DOPC     C310     CEL1    -0.150000       12.0110           0
      9538 MEMB     77       DOPC     H10X     HEL1     0.150000       1.00800           0
      9539 MEMB     77       DOPC     C311     CTL2    -0.180000       12.0110           0
      9540 MEMB     77       DOPC     H11X     HAL2     0.900000E-01   1.00800           0
      9541 MEMB     77       DOPC     H11Y     HAL2     0.900000E-01   1.00800           0
      9542 MEMB     77       DOPC     C312     CTL2    -0.180000       12.0110           0
      9543 MEMB     77       DOPC     H12X     HAL2     0.900000E-01   1.00800           0
      9544 MEMB     77       DOPC     H12Y     HAL2     0.900000E-01   1.00800           0
      9545 MEMB     77       DOPC     C313     CTL2    -0.180000       12.0110           0
      9546 MEMB     77       DOPC     H13X     HAL2     0.900000E-01   1.00800           0
      9547 MEMB     77       DOPC     H13Y     HAL2     0.900000E-01   1.00800           0
      9548 MEMB     77       DOPC     C314     CTL2    -0.180000       12.0110           0
      9549 MEMB     77       DOPC     H14X     HAL2     0.900000E-01   1.00800           0
      9550 MEMB     77       DOPC     H14Y     HAL2     0.900000E-01   1.00800           0
      9551 MEMB     77       DOPC     C315     CTL2    -0.180000       12.0110           0
      9552 MEMB     77       DOPC     H15X     HAL2     0.900000E-01   1.00800           0
      9553 MEMB     77       DOPC     H15Y     HAL2     0.900000E-01   1.00800           0
      9554 MEMB     77       DOPC     C316     CTL2    -0.180000       12.0110           0
      9555 MEMB     77       DOPC     H16X     HAL2     0.900000E-01   1.00800           0
      9556 MEMB     77       DOPC     H16Y     HAL2     0.900000E-01   1.00800           0
      9557 MEMB     77       DOPC     C317     CTL2    -0.180000       12.0110           0
      9558 MEMB     77       DOPC     H17X     HAL2     0.900000E-01   1.00800           0
      9559 MEMB     77       DOPC     H17Y     HAL2     0.900000E-01   1.00800           0
      9560 MEMB     77       DOPC     C318     CTL3    -0.270000       12.0110           0
      9561 MEMB     77       DOPC     H18X     HAL3     0.900000E-01   1.00800           0
      9562 MEMB     77       DOPC     H18Y     HAL3     0.900000E-01   1.00800           0
      9563 MEMB     77       DOPC     H18Z     HAL3     0.900000E-01   1.00800           0
      9564 MEMB     78       DOPE     N        NH3L    -0.300000       14.0070           0
      9565 MEMB     78       DOPE     HN1      HCL      0.330000       1.00800           0
      9566 MEMB     78       DOPE     HN2      HCL      0.330000       1.00800           0
      9567 MEMB     78       DOPE     HN3      HCL      0.330000       1.00800           0
      9568 MEMB     78       DOPE     C12      CTL2     0.130000       12.0110           0
      9569 MEMB     78       DOPE     H12A     HAL2     0.900000E-01   1.00800           0
      9570 MEMB     78       DOPE     H12B     HAL2     0.900000E-01   1.00800           0
      9571 MEMB     78       DOPE     C11      CTL2    -0.800000E-01   12.0110           0
      9572 MEMB     78       DOPE     H11A     HAL2     0.900000E-01   1.00800           0
      9573 MEMB     78       DOPE     H11B     HAL2     0.900000E-01   1.00800           0
      9574 MEMB     78       DOPE     P        PL        1.50000       30.9740           0
      9575 MEMB     78       DOPE     O13      O2L     -0.780000       15.9994           0
      9576 MEMB     78       DOPE     O14      O2L     -0.780000       15.9994           0
      9577 MEMB     78       DOPE     O11      OSLP    -0.570000       15.9994           0
      9578 MEMB     78       DOPE     O12      OSLP    -0.570000       15.9994           0
      9579 MEMB     78       DOPE     C1       CTL2    -0.800000E-01   12.0110           0
      9580 MEMB     78       DOPE     HA       HAL2     0.900000E-01   1.00800           0
      9581 MEMB     78       DOPE     HB       HAL2     0.900000E-01   1.00800           0
      9582 MEMB     78       DOPE     C2       CTL1     0.170000       12.0110           0
      9583 MEMB     78       DOPE     HS       HAL1     0.900000E-01   1.00800           0
      9584 MEMB     78       DOPE     O21      OSL     -0.490000       15.9994           0
      9585 MEMB     78       DOPE     C21      CL       0.900000       12.0110           0
      9586 MEMB     78       DOPE     O22      OBL     -0.630000       15.9994           0
      9587 MEMB     78       DOPE     C22      CTL2    -0.220000       12.0110           0
      9588 MEMB     78       DOPE     H2R      HAL2     0.900000E-01   1.00800           0
      9589 MEMB     78       DOPE     H2S      HAL2     0.900000E-01   1.00800           0
      9590 MEMB     78       DOPE     C3       CTL2     0.800000E-01   12.0110           0
      9591 MEMB     78       DOPE     HX       HAL2     0.900000E-01   1.00800           0
      9592 MEMB     78       DOPE     HY       HAL2     0.900000E-01   1.00800           0
      9593 MEMB     78       DOPE     O31      OSL     -0.490000       15.9994           0
      9594 MEMB     78       DOPE     C31      CL       0.900000       12.0110           0
      9595 MEMB     78       DOPE     O32      OBL     -0.630000       15.9994           0
      9596 MEMB     78       DOPE     C32      CTL2    -0.220000       12.0110           0
      9597 MEMB     78       DOPE     H2X      HAL2     0.900000E-01   1.00800           0
      9598 MEMB     78       DOPE     H2Y      HAL2     0.900000E-01   1.00800           0
      9599 MEMB     78       DOPE     C23      CTL2    -0.180000       12.0110           0
      9600 MEMB     78       DOPE     H3R      HAL2     0.900000E-01   1.00800           0
      9601 MEMB     78       DOPE     H3S      HAL2     0.900000E-01   1.00800           0
      9602 MEMB     78       DOPE     C24      CTL2    -0.180000       12.0110           0
      9603 MEMB     78       DOPE     H4R      HAL2     0.900000E-01   1.00800           0
      9604 MEMB     78       DOPE     H4S      HAL2     0.900000E-01   1.00800           0
      9605 MEMB     78       DOPE     C25      CTL2    -0.180000       12.0110           0
      9606 MEMB     78       DOPE     H5R      HAL2     0.900000E-01   1.00800           0
      9607 MEMB     78       DOPE     H5S      HAL2     0.900000E-01   1.00800           0
      9608 MEMB     78       DOPE     C26      CTL2    -0.180000       12.0110           0
      9609 MEMB     78       DOPE     H6R      HAL2     0.900000E-01   1.00800           0
      9610 MEMB     78       DOPE     H6S      HAL2     0.900000E-01   1.00800           0
      9611 MEMB     78       DOPE     C27      CTL2    -0.180000       12.0110           0
      9612 MEMB     78       DOPE     H7R      HAL2     0.900000E-01   1.00800           0
      9613 MEMB     78       DOPE     H7S      HAL2     0.900000E-01   1.00800           0
      9614 MEMB     78       DOPE     C28      CTL2    -0.180000       12.0110           0
      9615 MEMB     78       DOPE     H8R      HAL2     0.900000E-01   1.00800           0
      9616 MEMB     78       DOPE     H8S      HAL2     0.900000E-01   1.00800           0
      9617 MEMB     78       DOPE     C29      CEL1    -0.150000       12.0110           0
      9618 MEMB     78       DOPE     H9R      HEL1     0.150000       1.00800           0
      9619 MEMB     78       DOPE     C210     CEL1    -0.150000       12.0110           0
      9620 MEMB     78       DOPE     H10R     HEL1     0.150000       1.00800           0
      9621 MEMB     78       DOPE     C211     CTL2    -0.180000       12.0110           0
      9622 MEMB     78       DOPE     H11R     HAL2     0.900000E-01   1.00800           0
      9623 MEMB     78       DOPE     H11S     HAL2     0.900000E-01   1.00800           0
      9624 MEMB     78       DOPE     C212     CTL2    -0.180000       12.0110           0
      9625 MEMB     78       DOPE     H12R     HAL2     0.900000E-01   1.00800           0
      9626 MEMB     78       DOPE     H12S     HAL2     0.900000E-01   1.00800           0
      9627 MEMB     78       DOPE     C213     CTL2    -0.180000       12.0110           0
      9628 MEMB     78       DOPE     H13R     HAL2     0.900000E-01   1.00800           0
      9629 MEMB     78       DOPE     H13S     HAL2     0.900000E-01   1.00800           0
      9630 MEMB     78       DOPE     C214     CTL2    -0.180000       12.0110           0
      9631 MEMB     78       DOPE     H14R     HAL2     0.900000E-01   1.00800           0
      9632 MEMB     78       DOPE     H14S     HAL2     0.900000E-01   1.00800           0
      9633 MEMB     78       DOPE     C215     CTL2    -0.180000       12.0110           0
      9634 MEMB     78       DOPE     H15R     HAL2     0.900000E-01   1.00800           0
      9635 MEMB     78       DOPE     H15S     HAL2     0.900000E-01   1.00800           0
      9636 MEMB     78       DOPE     C216     CTL2    -0.180000       12.0110           0
      9637 MEMB     78       DOPE     H16R     HAL2     0.900000E-01   1.00800           0
      9638 MEMB     78       DOPE     H16S     HAL2     0.900000E-01   1.00800           0
      9639 MEMB     78       DOPE     C217     CTL2    -0.180000       12.0110           0
      9640 MEMB     78       DOPE     H17R     HAL2     0.900000E-01   1.00800           0
      9641 MEMB     78       DOPE     H17S     HAL2     0.900000E-01   1.00800           0
      9642 MEMB     78       DOPE     C218     CTL3    -0.270000       12.0110           0
      9643 MEMB     78       DOPE     H18R     HAL3     0.900000E-01   1.00800           0
      9644 MEMB     78       DOPE     H18S     HAL3     0.900000E-01   1.00800           0
      9645 MEMB     78       DOPE     H18T     HAL3     0.900000E-01   1.00800           0
      9646 MEMB     78       DOPE     C33      CTL2    -0.180000       12.0110           0
      9647 MEMB     78       DOPE     H3X      HAL2     0.900000E-01   1.00800           0
      9648 MEMB     78       DOPE     H3Y      HAL2     0.900000E-01   1.00800           0
      9649 MEMB     78       DOPE     C34      CTL2    -0.180000       12.0110           0
      9650 MEMB     78       DOPE     H4X      HAL2     0.900000E-01   1.00800           0
      9651 MEMB     78       DOPE     H4Y      HAL2     0.900000E-01   1.00800           0
      9652 MEMB     78       DOPE     C35      CTL2    -0.180000       12.0110           0
      9653 MEMB     78       DOPE     H5X      HAL2     0.900000E-01   1.00800           0
      9654 MEMB     78       DOPE     H5Y      HAL2     0.900000E-01   1.00800           0
      9655 MEMB     78       DOPE     C36      CTL2    -0.180000       12.0110           0
      9656 MEMB     78       DOPE     H6X      HAL2     0.900000E-01   1.00800           0
      9657 MEMB     78       DOPE     H6Y      HAL2     0.900000E-01   1.00800           0
      9658 MEMB     78       DOPE     C37      CTL2    -0.180000       12.0110           0
      9659 MEMB     78       DOPE     H7X      HAL2     0.900000E-01   1.00800           0
      9660 MEMB     78       DOPE     H7Y      HAL2     0.900000E-01   1.00800           0
      9661 MEMB     78       DOPE     C38      CTL2    -0.180000       12.0110           0
      9662 MEMB     78       DOPE     H8X      HAL2     0.900000E-01   1.00800           0
      9663 MEMB     78       DOPE     H8Y      HAL2     0.900000E-01   1.00800           0
      9664 MEMB     78       DOPE     C39      CEL1    -0.150000       12.0110           0
      9665 MEMB     78       DOPE     H9X      HEL1     0.150000       1.00800           0
      9666 MEMB     78       DOPE     C310     CEL1    -0.150000       12.0110           0
      9667 MEMB     78       DOPE     H10X     HEL1     0.150000       1.00800           0
      9668 MEMB     78       DOPE     C311     CTL2    -0.180000       12.0110           0
      9669 MEMB     78       DOPE     H11X     HAL2     0.900000E-01   1.00800           0
      9670 MEMB     78       DOPE     H11Y     HAL2     0.900000E-01   1.00800           0
      9671 MEMB     78       DOPE     C312     CTL2    -0.180000       12.0110           0
      9672 MEMB     78       DOPE     H12X     HAL2     0.900000E-01   1.00800           0
      9673 MEMB     78       DOPE     H12Y     HAL2     0.900000E-01   1.00800           0
      9674 MEMB     78       DOPE     C313     CTL2    -0.180000       12.0110           0
      9675 MEMB     78       DOPE     H13X     HAL2     0.900000E-01   1.00800           0
      9676 MEMB     78       DOPE     H13Y     HAL2     0.900000E-01   1.00800           0
      9677 MEMB     78       DOPE     C314     CTL2    -0.180000       12.0110           0
      9678 MEMB     78       DOPE     H14X     HAL2     0.900000E-01   1.00800           0
      9679 MEMB     78       DOPE     H14Y     HAL2     0.900000E-01   1.00800           0
      9680 MEMB     78       DOPE     C315     CTL2    -0.180000       12.0110           0
      9681 MEMB     78       DOPE     H15X     HAL2     0.900000E-01   1.00800           0
      9682 MEMB     78       DOPE     H15Y     HAL2     0.900000E-01   1.00800           0
      9683 MEMB     78       DOPE     C316     CTL2    -0.180000       12.0110           0
      9684 MEMB     78       DOPE     H16X     HAL2     0.900000E-01   1.00800           0
      9685 MEMB     78       DOPE     H16Y     HAL2     0.900000E-01   1.00800           0
      9686 MEMB     78       DOPE     C317     CTL2    -0.180000       12.0110           0
      9687 MEMB     78       DOPE     H17X     HAL2     0.900000E-01   1.00800           0
      9688 MEMB     78       DOPE     H17Y     HAL2     0.900000E-01   1.00800           0
      9689 MEMB     78       DOPE     C318     CTL3    -0.270000       12.0110           0
      9690 MEMB     78       DOPE     H18X     HAL3     0.900000E-01   1.00800           0
      9691 MEMB     78       DOPE     H18Y     HAL3     0.900000E-01   1.00800           0
      9692 MEMB     78       DOPE     H18Z     HAL3     0.900000E-01   1.00800           0
      9693 MEMB     79       DOPE     N        NH3L    -0.300000       14.0070           0
      9694 MEMB     79       DOPE     HN1      HCL      0.330000       1.00800           0
      9695 MEMB     79       DOPE     HN2      HCL      0.330000       1.00800           0
      9696 MEMB     79       DOPE     HN3      HCL      0.330000       1.00800           0
      9697 MEMB     79       DOPE     C12      CTL2     0.130000       12.0110           0
      9698 MEMB     79       DOPE     H12A     HAL2     0.900000E-01   1.00800           0
      9699 MEMB     79       DOPE     H12B     HAL2     0.900000E-01   1.00800           0
      9700 MEMB     79       DOPE     C11      CTL2    -0.800000E-01   12.0110           0
      9701 MEMB     79       DOPE     H11A     HAL2     0.900000E-01   1.00800           0
      9702 MEMB     79       DOPE     H11B     HAL2     0.900000E-01   1.00800           0
      9703 MEMB     79       DOPE     P        PL        1.50000       30.9740           0
      9704 MEMB     79       DOPE     O13      O2L     -0.780000       15.9994           0
      9705 MEMB     79       DOPE     O14      O2L     -0.780000       15.9994           0
      9706 MEMB     79       DOPE     O11      OSLP    -0.570000       15.9994           0
      9707 MEMB     79       DOPE     O12      OSLP    -0.570000       15.9994           0
      9708 MEMB     79       DOPE     C1       CTL2    -0.800000E-01   12.0110           0
      9709 MEMB     79       DOPE     HA       HAL2     0.900000E-01   1.00800           0
      9710 MEMB     79       DOPE     HB       HAL2     0.900000E-01   1.00800           0
      9711 MEMB     79       DOPE     C2       CTL1     0.170000       12.0110           0
      9712 MEMB     79       DOPE     HS       HAL1     0.900000E-01   1.00800           0
      9713 MEMB     79       DOPE     O21      OSL     -0.490000       15.9994           0
      9714 MEMB     79       DOPE     C21      CL       0.900000       12.0110           0
      9715 MEMB     79       DOPE     O22      OBL     -0.630000       15.9994           0
      9716 MEMB     79       DOPE     C22      CTL2    -0.220000       12.0110           0
      9717 MEMB     79       DOPE     H2R      HAL2     0.900000E-01   1.00800           0
      9718 MEMB     79       DOPE     H2S      HAL2     0.900000E-01   1.00800           0
      9719 MEMB     79       DOPE     C3       CTL2     0.800000E-01   12.0110           0
      9720 MEMB     79       DOPE     HX       HAL2     0.900000E-01   1.00800           0
      9721 MEMB     79       DOPE     HY       HAL2     0.900000E-01   1.00800           0
      9722 MEMB     79       DOPE     O31      OSL     -0.490000       15.9994           0
      9723 MEMB     79       DOPE     C31      CL       0.900000       12.0110           0
      9724 MEMB     79       DOPE     O32      OBL     -0.630000       15.9994           0
      9725 MEMB     79       DOPE     C32      CTL2    -0.220000       12.0110           0
      9726 MEMB     79       DOPE     H2X      HAL2     0.900000E-01   1.00800           0
      9727 MEMB     79       DOPE     H2Y      HAL2     0.900000E-01   1.00800           0
      9728 MEMB     79       DOPE     C23      CTL2    -0.180000       12.0110           0
      9729 MEMB     79       DOPE     H3R      HAL2     0.900000E-01   1.00800           0
      9730 MEMB     79       DOPE     H3S      HAL2     0.900000E-01   1.00800           0
      9731 MEMB     79       DOPE     C24      CTL2    -0.180000       12.0110           0
      9732 MEMB     79       DOPE     H4R      HAL2     0.900000E-01   1.00800           0
      9733 MEMB     79       DOPE     H4S      HAL2     0.900000E-01   1.00800           0
      9734 MEMB     79       DOPE     C25      CTL2    -0.180000       12.0110           0
      9735 MEMB     79       DOPE     H5R      HAL2     0.900000E-01   1.00800           0
      9736 MEMB     79       DOPE     H5S      HAL2     0.900000E-01   1.00800           0
      9737 MEMB     79       DOPE     C26      CTL2    -0.180000       12.0110           0
      9738 MEMB     79       DOPE     H6R      HAL2     0.900000E-01   1.00800           0
      9739 MEMB     79       DOPE     H6S      HAL2     0.900000E-01   1.00800           0
      9740 MEMB     79       DOPE     C27      CTL2    -0.180000       12.0110           0
      9741 MEMB     79       DOPE     H7R      HAL2     0.900000E-01   1.00800           0
      9742 MEMB     79       DOPE     H7S      HAL2     0.900000E-01   1.00800           0
      9743 MEMB     79       DOPE     C28      CTL2    -0.180000       12.0110           0
      9744 MEMB     79       DOPE     H8R      HAL2     0.900000E-01   1.00800           0
      9745 MEMB     79       DOPE     H8S      HAL2     0.900000E-01   1.00800           0
      9746 MEMB     79       DOPE     C29      CEL1    -0.150000       12.0110           0
      9747 MEMB     79       DOPE     H9R      HEL1     0.150000       1.00800           0
      9748 MEMB     79       DOPE     C210     CEL1    -0.150000       12.0110           0
      9749 MEMB     79       DOPE     H10R     HEL1     0.150000       1.00800           0
      9750 MEMB     79       DOPE     C211     CTL2    -0.180000       12.0110           0
      9751 MEMB     79       DOPE     H11R     HAL2     0.900000E-01   1.00800           0
      9752 MEMB     79       DOPE     H11S     HAL2     0.900000E-01   1.00800           0
      9753 MEMB     79       DOPE     C212     CTL2    -0.180000       12.0110           0
      9754 MEMB     79       DOPE     H12R     HAL2     0.900000E-01   1.00800           0
      9755 MEMB     79       DOPE     H12S     HAL2     0.900000E-01   1.00800           0
      9756 MEMB     79       DOPE     C213     CTL2    -0.180000       12.0110           0
      9757 MEMB     79       DOPE     H13R     HAL2     0.900000E-01   1.00800           0
      9758 MEMB     79       DOPE     H13S     HAL2     0.900000E-01   1.00800           0
      9759 MEMB     79       DOPE     C214     CTL2    -0.180000       12.0110           0
      9760 MEMB     79       DOPE     H14R     HAL2     0.900000E-01   1.00800           0
      9761 MEMB     79       DOPE     H14S     HAL2     0.900000E-01   1.00800           0
      9762 MEMB     79       DOPE     C215     CTL2    -0.180000       12.0110           0
      9763 MEMB     79       DOPE     H15R     HAL2     0.900000E-01   1.00800           0
      9764 MEMB     79       DOPE     H15S     HAL2     0.900000E-01   1.00800           0
      9765 MEMB     79       DOPE     C216     CTL2    -0.180000       12.0110           0
      9766 MEMB     79       DOPE     H16R     HAL2     0.900000E-01   1.00800           0
      9767 MEMB     79       DOPE     H16S     HAL2     0.900000E-01   1.00800           0
      9768 MEMB     79       DOPE     C217     CTL2    -0.180000       12.0110           0
      9769 MEMB     79       DOPE     H17R     HAL2     0.900000E-01   1.00800           0
      9770 MEMB     79       DOPE     H17S     HAL2     0.900000E-01   1.00800           0
      9771 MEMB     79       DOPE     C218     CTL3    -0.270000       12.0110           0
      9772 MEMB     79       DOPE     H18R     HAL3     0.900000E-01   1.00800           0
      9773 MEMB     79       DOPE     H18S     HAL3     0.900000E-01   1.00800           0
      9774 MEMB     79       DOPE     H18T     HAL3     0.900000E-01   1.00800           0
      9775 MEMB     79       DOPE     C33      CTL2    -0.180000       12.0110           0
      9776 MEMB     79       DOPE     H3X      HAL2     0.900000E-01   1.00800           0
      9777 MEMB     79       DOPE     H3Y      HAL2     0.900000E-01   1.00800           0
      9778 MEMB     79       DOPE     C34      CTL2    -0.180000       12.0110           0
      9779 MEMB     79       DOPE     H4X      HAL2     0.900000E-01   1.00800           0
      9780 MEMB     79       DOPE     H4Y      HAL2     0.900000E-01   1.00800           0
      9781 MEMB     79       DOPE     C35      CTL2    -0.180000       12.0110           0
      9782 MEMB     79       DOPE     H5X      HAL2     0.900000E-01   1.00800           0
      9783 MEMB     79       DOPE     H5Y      HAL2     0.900000E-01   1.00800           0
      9784 MEMB     79       DOPE     C36      CTL2    -0.180000       12.0110           0
      9785 MEMB     79       DOPE     H6X      HAL2     0.900000E-01   1.00800           0
      9786 MEMB     79       DOPE     H6Y      HAL2     0.900000E-01   1.00800           0
      9787 MEMB     79       DOPE     C37      CTL2    -0.180000       12.0110           0
      9788 MEMB     79       DOPE     H7X      HAL2     0.900000E-01   1.00800           0
      9789 MEMB     79       DOPE     H7Y      HAL2     0.900000E-01   1.00800           0
      9790 MEMB     79       DOPE     C38      CTL2    -0.180000       12.0110           0
      9791 MEMB     79       DOPE     H8X      HAL2     0.900000E-01   1.00800           0
      9792 MEMB     79       DOPE     H8Y      HAL2     0.900000E-01   1.00800           0
      9793 MEMB     79       DOPE     C39      CEL1    -0.150000       12.0110           0
      9794 MEMB     79       DOPE     H9X      HEL1     0.150000       1.00800           0
      9795 MEMB     79       DOPE     C310     CEL1    -0.150000       12.0110           0
      9796 MEMB     79       DOPE     H10X     HEL1     0.150000       1.00800           0
      9797 MEMB     79       DOPE     C311     CTL2    -0.180000       12.0110           0
      9798 MEMB     79       DOPE     H11X     HAL2     0.900000E-01   1.00800           0
      9799 MEMB     79       DOPE     H11Y     HAL2     0.900000E-01   1.00800           0
      9800 MEMB     79       DOPE     C312     CTL2    -0.180000       12.0110           0
      9801 MEMB     79       DOPE     H12X     HAL2     0.900000E-01   1.00800           0
      9802 MEMB     79       DOPE     H12Y     HAL2     0.900000E-01   1.00800           0
      9803 MEMB     79       DOPE     C313     CTL2    -0.180000       12.0110           0
      9804 MEMB     79       DOPE     H13X     HAL2     0.900000E-01   1.00800           0
      9805 MEMB     79       DOPE     H13Y     HAL2     0.900000E-01   1.00800           0
      9806 MEMB     79       DOPE     C314     CTL2    -0.180000       12.0110           0
      9807 MEMB     79       DOPE     H14X     HAL2     0.900000E-01   1.00800           0
      9808 MEMB     79       DOPE     H14Y     HAL2     0.900000E-01   1.00800           0
      9809 MEMB     79       DOPE     C315     CTL2    -0.180000       12.0110           0
      9810 MEMB     79       DOPE     H15X     HAL2     0.900000E-01   1.00800           0
      9811 MEMB     79       DOPE     H15Y     HAL2     0.900000E-01   1.00800           0
      9812 MEMB     79       DOPE     C316     CTL2    -0.180000       12.0110           0
      9813 MEMB     79       DOPE     H16X     HAL2     0.900000E-01   1.00800           0
      9814 MEMB     79       DOPE     H16Y     HAL2     0.900000E-01   1.00800           0
      9815 MEMB     79       DOPE     C317     CTL2    -0.180000       12.0110           0
      9816 MEMB     79       DOPE     H17X     HAL2     0.900000E-01   1.00800           0
      9817 MEMB     79       DOPE     H17Y     HAL2     0.900000E-01   1.00800           0
      9818 MEMB     79       DOPE     C318     CTL3    -0.270000       12.0110           0
      9819 MEMB     79       DOPE     H18X     HAL3     0.900000E-01   1.00800           0
      9820 MEMB     79       DOPE     H18Y     HAL3     0.900000E-01   1.00800           0
      9821 MEMB     79       DOPE     H18Z     HAL3     0.900000E-01   1.00800           0
      9822 MEMB     80       23SM     N        NTL     -0.600000       14.0070           0
      9823 MEMB     80       23SM     C15      CTL5    -0.350000       12.0110           0
      9824 MEMB     80       23SM     H15A     HL       0.250000       1.00800           0
      9825 MEMB     80       23SM     H15B     HL       0.250000       1.00800           0
      9826 MEMB     80       23SM     H15C     HL       0.250000       1.00800           0
      9827 MEMB     80       23SM     C14      CTL5    -0.350000       12.0110           0
      9828 MEMB     80       23SM     H14A     HL       0.250000       1.00800           0
      9829 MEMB     80       23SM     H14B     HL       0.250000       1.00800           0
      9830 MEMB     80       23SM     H14C     HL       0.250000       1.00800           0
      9831 MEMB     80       23SM     C13      CTL5    -0.350000       12.0110           0
      9832 MEMB     80       23SM     H13A     HL       0.250000       1.00800           0
      9833 MEMB     80       23SM     H13B     HL       0.250000       1.00800           0
      9834 MEMB     80       23SM     H13C     HL       0.250000       1.00800           0
      9835 MEMB     80       23SM     C12      CTL2    -0.100000       12.0110           0
      9836 MEMB     80       23SM     H12A     HL       0.250000       1.00800           0
      9837 MEMB     80       23SM     H12B     HL       0.250000       1.00800           0
      9838 MEMB     80       23SM     C11      CTL2    -0.800000E-01   12.0110           0
      9839 MEMB     80       23SM     H11A     HAL2     0.900000E-01   1.00800           0
      9840 MEMB     80       23SM     H11B     HAL2     0.900000E-01   1.00800           0
      9841 MEMB     80       23SM     P        PL        1.50000       30.9740           0
      9842 MEMB     80       23SM     O13      O2L     -0.780000       15.9994           0
      9843 MEMB     80       23SM     O14      O2L     -0.780000       15.9994           0
      9844 MEMB     80       23SM     O11      OSLP    -0.570000       15.9994           0
      9845 MEMB     80       23SM     O12      OSLP    -0.570000       15.9994           0
      9846 MEMB     80       23SM     C1S      CTL2    -0.800000E-01   12.0110           0
      9847 MEMB     80       23SM     H1S      HAL2     0.900000E-01   1.00800           0
      9848 MEMB     80       23SM     H1T      HAL2     0.900000E-01   1.00800           0
      9849 MEMB     80       23SM     NF       NHL     -0.700000       14.0070           0
      9850 MEMB     80       23SM     HNF      H        0.350000       1.00800           0
      9851 MEMB     80       23SM     C2S      CTL1     0.300000       12.0110           0
      9852 MEMB     80       23SM     H2S      HAL1     0.500000E-01   1.00800           0
      9853 MEMB     80       23SM     C3S      CTO1     0.500000       12.0110           0
      9854 MEMB     80       23SM     H3S      HAL1    -0.110000       1.00800           0
      9855 MEMB     80       23SM     O3       OHL     -0.690000       15.9994           0
      9856 MEMB     80       23SM     HO3      HOL      0.300000       1.00800           0
      9857 MEMB     80       23SM     C4S      CEL3    -0.150000       12.0110           0
      9858 MEMB     80       23SM     H4S      HEL1     0.150000       1.00800           0
      9859 MEMB     80       23SM     C5S      CEL3    -0.150000       12.0110           0
      9860 MEMB     80       23SM     H5S      HEL1     0.150000       1.00800           0
      9861 MEMB     80       23SM     C6S      CTL2    -0.180000       12.0110           0
      9862 MEMB     80       23SM     H6S      HAL2     0.900000E-01   1.00800           0
      9863 MEMB     80       23SM     H6T      HAL2     0.900000E-01   1.00800           0
      9864 MEMB     80       23SM     C7S      CTL2    -0.180000       12.0110           0
      9865 MEMB     80       23SM     H7S      HAL2     0.900000E-01   1.00800           0
      9866 MEMB     80       23SM     H7T      HAL2     0.900000E-01   1.00800           0
      9867 MEMB     80       23SM     C8S      CTL2    -0.180000       12.0110           0
      9868 MEMB     80       23SM     H8S      HAL2     0.900000E-01   1.00800           0
      9869 MEMB     80       23SM     H8T      HAL2     0.900000E-01   1.00800           0
      9870 MEMB     80       23SM     C9S      CTL2    -0.180000       12.0110           0
      9871 MEMB     80       23SM     H9S      HAL2     0.900000E-01   1.00800           0
      9872 MEMB     80       23SM     H9T      HAL2     0.900000E-01   1.00800           0
      9873 MEMB     80       23SM     C10S     CTL2    -0.180000       12.0110           0
      9874 MEMB     80       23SM     H10S     HAL2     0.900000E-01   1.00800           0
      9875 MEMB     80       23SM     H10T     HAL2     0.900000E-01   1.00800           0
      9876 MEMB     80       23SM     C11S     CTL2    -0.180000       12.0110           0
      9877 MEMB     80       23SM     H11S     HAL2     0.900000E-01   1.00800           0
      9878 MEMB     80       23SM     H11T     HAL2     0.900000E-01   1.00800           0
      9879 MEMB     80       23SM     C12S     CTL2    -0.180000       12.0110           0
      9880 MEMB     80       23SM     H12S     HAL2     0.900000E-01   1.00800           0
      9881 MEMB     80       23SM     H12T     HAL2     0.900000E-01   1.00800           0
      9882 MEMB     80       23SM     C13S     CTL2    -0.180000       12.0110           0
      9883 MEMB     80       23SM     H13S     HAL2     0.900000E-01   1.00800           0
      9884 MEMB     80       23SM     H13T     HAL2     0.900000E-01   1.00800           0
      9885 MEMB     80       23SM     C14S     CTL2    -0.180000       12.0110           0
      9886 MEMB     80       23SM     H14S     HAL2     0.900000E-01   1.00800           0
      9887 MEMB     80       23SM     H14T     HAL2     0.900000E-01   1.00800           0
      9888 MEMB     80       23SM     C15S     CTL2    -0.180000       12.0110           0
      9889 MEMB     80       23SM     H15S     HAL2     0.900000E-01   1.00800           0
      9890 MEMB     80       23SM     H15T     HAL2     0.900000E-01   1.00800           0
      9891 MEMB     80       23SM     C16S     CTL2    -0.180000       12.0110           0
      9892 MEMB     80       23SM     H16S     HAL2     0.900000E-01   1.00800           0
      9893 MEMB     80       23SM     H16T     HAL2     0.900000E-01   1.00800           0
      9894 MEMB     80       23SM     C17S     CTL2    -0.180000       12.0110           0
      9895 MEMB     80       23SM     H17S     HAL2     0.900000E-01   1.00800           0
      9896 MEMB     80       23SM     H17T     HAL2     0.900000E-01   1.00800           0
      9897 MEMB     80       23SM     C18S     CTL3    -0.270000       12.0110           0
      9898 MEMB     80       23SM     H18S     HAL3     0.900000E-01   1.00800           0
      9899 MEMB     80       23SM     H18T     HAL3     0.900000E-01   1.00800           0
      9900 MEMB     80       23SM     H18U     HAL3     0.900000E-01   1.00800           0
      9901 MEMB     80       23SM     C1F      C        0.550000       12.0110           0
      9902 MEMB     80       23SM     OF       O       -0.600000       15.9994           0
      9903 MEMB     80       23SM     C2F      CTL2    -0.700000E-01   12.0110           0
      9904 MEMB     80       23SM     H2F      HAL2     0.600000E-01   1.00800           0
      9905 MEMB     80       23SM     H2G      HAL2     0.600000E-01   1.00800           0
      9906 MEMB     80       23SM     C3F      CTL2    -0.180000       12.0110           0
      9907 MEMB     80       23SM     H3F      HAL2     0.900000E-01   1.00800           0
      9908 MEMB     80       23SM     H3G      HAL2     0.900000E-01   1.00800           0
      9909 MEMB     80       23SM     C4F      CTL2    -0.180000       12.0110           0
      9910 MEMB     80       23SM     H4F      HAL2     0.900000E-01   1.00800           0
      9911 MEMB     80       23SM     H4G      HAL2     0.900000E-01   1.00800           0
      9912 MEMB     80       23SM     C5F      CTL2    -0.180000       12.0110           0
      9913 MEMB     80       23SM     H5F      HAL2     0.900000E-01   1.00800           0
      9914 MEMB     80       23SM     H5G      HAL2     0.900000E-01   1.00800           0
      9915 MEMB     80       23SM     C6F      CTL2    -0.180000       12.0110           0
      9916 MEMB     80       23SM     H6F      HAL2     0.900000E-01   1.00800           0
      9917 MEMB     80       23SM     H6G      HAL2     0.900000E-01   1.00800           0
      9918 MEMB     80       23SM     C7F      CTL2    -0.180000       12.0110           0
      9919 MEMB     80       23SM     H7F      HAL2     0.900000E-01   1.00800           0
      9920 MEMB     80       23SM     H7G      HAL2     0.900000E-01   1.00800           0
      9921 MEMB     80       23SM     C8F      CTL2    -0.180000       12.0110           0
      9922 MEMB     80       23SM     H8F      HAL2     0.900000E-01   1.00800           0
      9923 MEMB     80       23SM     H8G      HAL2     0.900000E-01   1.00800           0
      9924 MEMB     80       23SM     C9F      CTL2    -0.180000       12.0110           0
      9925 MEMB     80       23SM     H9F      HAL2     0.900000E-01   1.00800           0
      9926 MEMB     80       23SM     H9G      HAL2     0.900000E-01   1.00800           0
      9927 MEMB     80       23SM     C10F     CTL2    -0.180000       12.0110           0
      9928 MEMB     80       23SM     H10F     HAL2     0.900000E-01   1.00800           0
      9929 MEMB     80       23SM     H10G     HAL2     0.900000E-01   1.00800           0
      9930 MEMB     80       23SM     C11F     CTL2    -0.180000       12.0110           0
      9931 MEMB     80       23SM     H11F     HAL2     0.900000E-01   1.00800           0
      9932 MEMB     80       23SM     H11G     HAL2     0.900000E-01   1.00800           0
      9933 MEMB     80       23SM     C12F     CTL2    -0.180000       12.0110           0
      9934 MEMB     80       23SM     H12F     HAL2     0.900000E-01   1.00800           0
      9935 MEMB     80       23SM     H12G     HAL2     0.900000E-01   1.00800           0
      9936 MEMB     80       23SM     C13F     CTL2    -0.180000       12.0110           0
      9937 MEMB     80       23SM     H13F     HAL2     0.900000E-01   1.00800           0
      9938 MEMB     80       23SM     H13G     HAL2     0.900000E-01   1.00800           0
      9939 MEMB     80       23SM     C14F     CTL2    -0.180000       12.0110           0
      9940 MEMB     80       23SM     H14F     HAL2     0.900000E-01   1.00800           0
      9941 MEMB     80       23SM     H14G     HAL2     0.900000E-01   1.00800           0
      9942 MEMB     80       23SM     C15F     CTL2    -0.180000       12.0110           0
      9943 MEMB     80       23SM     H15F     HAL2     0.900000E-01   1.00800           0
      9944 MEMB     80       23SM     H15G     HAL2     0.900000E-01   1.00800           0
      9945 MEMB     80       23SM     C16F     CTL2    -0.180000       12.0110           0
      9946 MEMB     80       23SM     H16F     HAL2     0.900000E-01   1.00800           0
      9947 MEMB     80       23SM     H16G     HAL2     0.900000E-01   1.00800           0
      9948 MEMB     80       23SM     C17F     CTL2    -0.180000       12.0110           0
      9949 MEMB     80       23SM     H17F     HAL2     0.900000E-01   1.00800           0
      9950 MEMB     80       23SM     H17G     HAL2     0.900000E-01   1.00800           0
      9951 MEMB     80       23SM     C18F     CTL2    -0.180000       12.0110           0
      9952 MEMB     80       23SM     H18F     HAL2     0.900000E-01   1.00800           0
      9953 MEMB     80       23SM     H18G     HAL2     0.900000E-01   1.00800           0
      9954 MEMB     80       23SM     C19F     CTL2    -0.180000       12.0110           0
      9955 MEMB     80       23SM     H19F     HAL2     0.900000E-01   1.00800           0
      9956 MEMB     80       23SM     H19G     HAL2     0.900000E-01   1.00800           0
      9957 MEMB     80       23SM     C20F     CTL2    -0.180000       12.0110           0
      9958 MEMB     80       23SM     H20F     HAL2     0.900000E-01   1.00800           0
      9959 MEMB     80       23SM     H20G     HAL2     0.900000E-01   1.00800           0
      9960 MEMB     80       23SM     C21F     CTL2    -0.180000       12.0110           0
      9961 MEMB     80       23SM     H21F     HAL2     0.900000E-01   1.00800           0
      9962 MEMB     80       23SM     H21G     HAL2     0.900000E-01   1.00800           0
      9963 MEMB     80       23SM     C22F     CTL2    -0.180000       12.0110           0
      9964 MEMB     80       23SM     H22F     HAL2     0.900000E-01   1.00800           0
      9965 MEMB     80       23SM     H22G     HAL2     0.900000E-01   1.00800           0
      9966 MEMB     80       23SM     C23F     CTL3    -0.270000       12.0110           0
      9967 MEMB     80       23SM     H23F     HAL3     0.900000E-01   1.00800           0
      9968 MEMB     80       23SM     H23G     HAL3     0.900000E-01   1.00800           0
      9969 MEMB     80       23SM     H23H     HAL3     0.900000E-01   1.00800           0
      9970 MEMB     81       CHL1     C3       CRL1     0.140000       12.0110           0
      9971 MEMB     81       CHL1     H3       HGA1     0.900000E-01   1.00800           0
      9972 MEMB     81       CHL1     O3       OHL     -0.660000       15.9994           0
      9973 MEMB     81       CHL1     H3'      HOL      0.430000       1.00800           0
      9974 MEMB     81       CHL1     C4       CRL2    -0.180000       12.0110           0
      9975 MEMB     81       CHL1     H4A      HGA2     0.900000E-01   1.00800           0
      9976 MEMB     81       CHL1     H4B      HGA2     0.900000E-01   1.00800           0
      9977 MEMB     81       CHL1     C5       CEL1      0.00000       12.0110           0
      9978 MEMB     81       CHL1     C6       CEL1    -0.150000       12.0110           0
      9979 MEMB     81       CHL1     H6       HEL1     0.150000       1.00800           0
      9980 MEMB     81       CHL1     C7       CRL2    -0.180000       12.0110           0
      9981 MEMB     81       CHL1     H7A      HGA2     0.900000E-01   1.00800           0
      9982 MEMB     81       CHL1     H7B      HGA2     0.900000E-01   1.00800           0
      9983 MEMB     81       CHL1     C8       CRL1    -0.900000E-01   12.0110           0
      9984 MEMB     81       CHL1     H8       HGA1     0.900000E-01   1.00800           0
      9985 MEMB     81       CHL1     C14      CRL1    -0.900000E-01   12.0110           0
      9986 MEMB     81       CHL1     H14      HGA1     0.900000E-01   1.00800           0
      9987 MEMB     81       CHL1     C15      CRL2    -0.180000       12.0110           0
      9988 MEMB     81       CHL1     H15A     HGA2     0.900000E-01   1.00800           0
      9989 MEMB     81       CHL1     H15B     HGA2     0.900000E-01   1.00800           0
      9990 MEMB     81       CHL1     C16      CRL2    -0.180000       12.0110           0
      9991 MEMB     81       CHL1     H16A     HGA2     0.900000E-01   1.00800           0
      9992 MEMB     81       CHL1     H16B     HGA2     0.900000E-01   1.00800           0
      9993 MEMB     81       CHL1     C17      CRL1    -0.900000E-01   12.0110           0
      9994 MEMB     81       CHL1     H17      HGA1     0.900000E-01   1.00800           0
      9995 MEMB     81       CHL1     C13      CRL1      0.00000       12.0110           0
      9996 MEMB     81       CHL1     C18      CTL3    -0.270000       12.0110           0
      9997 MEMB     81       CHL1     H18A     HAL3     0.900000E-01   1.00800           0
      9998 MEMB     81       CHL1     H18B     HAL3     0.900000E-01   1.00800           0
      9999 MEMB     81       CHL1     H18C     HAL3     0.900000E-01   1.00800           0
     10000 MEMB     81       CHL1     C12      CRL2    -0.180000       12.0110           0
     10001 MEMB     81       CHL1     H12A     HGA2     0.900000E-01   1.00800           0
     10002 MEMB     81       CHL1     H12B     HGA2     0.900000E-01   1.00800           0
     10003 MEMB     81       CHL1     C11      CRL2    -0.180000       12.0110           0
     10004 MEMB     81       CHL1     H11A     HGA2     0.900000E-01   1.00800           0
     10005 MEMB     81       CHL1     H11B     HGA2     0.900000E-01   1.00800           0
     10006 MEMB     81       CHL1     C9       CRL1    -0.900000E-01   12.0110           0
     10007 MEMB     81       CHL1     H9       HGA1     0.900000E-01   1.00800           0
     10008 MEMB     81       CHL1     C10      CRL1      0.00000       12.0110           0
     10009 MEMB     81       CHL1     C19      CTL3    -0.270000       12.0110           0
     10010 MEMB     81       CHL1     H19A     HAL3     0.900000E-01   1.00800           0
     10011 MEMB     81       CHL1     H19B     HAL3     0.900000E-01   1.00800           0
     10012 MEMB     81       CHL1     H19C     HAL3     0.900000E-01   1.00800           0
     10013 MEMB     81       CHL1     C1       CRL2    -0.180000       12.0110           0
     10014 MEMB     81       CHL1     H1A      HGA2     0.900000E-01   1.00800           0
     10015 MEMB     81       CHL1     H1B      HGA2     0.900000E-01   1.00800           0
     10016 MEMB     81       CHL1     C2       CRL2    -0.180000       12.0110           0
     10017 MEMB     81       CHL1     H2A      HGA2     0.900000E-01   1.00800           0
     10018 MEMB     81       CHL1     H2B      HGA2     0.900000E-01   1.00800           0
     10019 MEMB     81       CHL1     C20      CTL1    -0.900000E-01   12.0110           0
     10020 MEMB     81       CHL1     H20      HAL1     0.900000E-01   1.00800           0
     10021 MEMB     81       CHL1     C21      CTL3    -0.270000       12.0110           0
     10022 MEMB     81       CHL1     H21A     HAL3     0.900000E-01   1.00800           0
     10023 MEMB     81       CHL1     H21B     HAL3     0.900000E-01   1.00800           0
     10024 MEMB     81       CHL1     H21C     HAL3     0.900000E-01   1.00800           0
     10025 MEMB     81       CHL1     C22      CTL2    -0.180000       12.0110           0
     10026 MEMB     81       CHL1     H22A     HAL2     0.900000E-01   1.00800           0
     10027 MEMB     81       CHL1     H22B     HAL2     0.900000E-01   1.00800           0
     10028 MEMB     81       CHL1     C23      CTL2    -0.180000       12.0110           0
     10029 MEMB     81       CHL1     H23A     HAL2     0.900000E-01   1.00800           0
     10030 MEMB     81       CHL1     H23B     HAL2     0.900000E-01   1.00800           0
     10031 MEMB     81       CHL1     C24      CTL2    -0.180000       12.0110           0
     10032 MEMB     81       CHL1     H24A     HAL2     0.900000E-01   1.00800           0
     10033 MEMB     81       CHL1     H24B     HAL2     0.900000E-01   1.00800           0
     10034 MEMB     81       CHL1     C25      CTL1    -0.900000E-01   12.0110           0
     10035 MEMB     81       CHL1     H25      HAL1     0.900000E-01   1.00800           0
     10036 MEMB     81       CHL1     C26      CTL3    -0.270000       12.0110           0
     10037 MEMB     81       CHL1     H26A     HAL3     0.900000E-01   1.00800           0
     10038 MEMB     81       CHL1     H26B     HAL3     0.900000E-01   1.00800           0
     10039 MEMB     81       CHL1     H26C     HAL3     0.900000E-01   1.00800           0
     10040 MEMB     81       CHL1     C27      CTL3    -0.270000       12.0110           0
     10041 MEMB     81       CHL1     H27A     HAL3     0.900000E-01   1.00800           0
     10042 MEMB     81       CHL1     H27B     HAL3     0.900000E-01   1.00800           0
     10043 MEMB     81       CHL1     H27C     HAL3     0.900000E-01   1.00800           0
     10044 MEMB     82       DOPE     N        NH3L    -0.300000       14.0070           0
     10045 MEMB     82       DOPE     HN1      HCL      0.330000       1.00800           0
     10046 MEMB     82       DOPE     HN2      HCL      0.330000       1.00800           0
     10047 MEMB     82       DOPE     HN3      HCL      0.330000       1.00800           0
     10048 MEMB     82       DOPE     C12      CTL2     0.130000       12.0110           0
     10049 MEMB     82       DOPE     H12A     HAL2     0.900000E-01   1.00800           0
     10050 MEMB     82       DOPE     H12B     HAL2     0.900000E-01   1.00800           0
     10051 MEMB     82       DOPE     C11      CTL2    -0.800000E-01   12.0110           0
     10052 MEMB     82       DOPE     H11A     HAL2     0.900000E-01   1.00800           0
     10053 MEMB     82       DOPE     H11B     HAL2     0.900000E-01   1.00800           0
     10054 MEMB     82       DOPE     P        PL        1.50000       30.9740           0
     10055 MEMB     82       DOPE     O13      O2L     -0.780000       15.9994           0
     10056 MEMB     82       DOPE     O14      O2L     -0.780000       15.9994           0
     10057 MEMB     82       DOPE     O11      OSLP    -0.570000       15.9994           0
     10058 MEMB     82       DOPE     O12      OSLP    -0.570000       15.9994           0
     10059 MEMB     82       DOPE     C1       CTL2    -0.800000E-01   12.0110           0
     10060 MEMB     82       DOPE     HA       HAL2     0.900000E-01   1.00800           0
     10061 MEMB     82       DOPE     HB       HAL2     0.900000E-01   1.00800           0
     10062 MEMB     82       DOPE     C2       CTL1     0.170000       12.0110           0
     10063 MEMB     82       DOPE     HS       HAL1     0.900000E-01   1.00800           0
     10064 MEMB     82       DOPE     O21      OSL     -0.490000       15.9994           0
     10065 MEMB     82       DOPE     C21      CL       0.900000       12.0110           0
     10066 MEMB     82       DOPE     O22      OBL     -0.630000       15.9994           0
     10067 MEMB     82       DOPE     C22      CTL2    -0.220000       12.0110           0
     10068 MEMB     82       DOPE     H2R      HAL2     0.900000E-01   1.00800           0
     10069 MEMB     82       DOPE     H2S      HAL2     0.900000E-01   1.00800           0
     10070 MEMB     82       DOPE     C3       CTL2     0.800000E-01   12.0110           0
     10071 MEMB     82       DOPE     HX       HAL2     0.900000E-01   1.00800           0
     10072 MEMB     82       DOPE     HY       HAL2     0.900000E-01   1.00800           0
     10073 MEMB     82       DOPE     O31      OSL     -0.490000       15.9994           0
     10074 MEMB     82       DOPE     C31      CL       0.900000       12.0110           0
     10075 MEMB     82       DOPE     O32      OBL     -0.630000       15.9994           0
     10076 MEMB     82       DOPE     C32      CTL2    -0.220000       12.0110           0
     10077 MEMB     82       DOPE     H2X      HAL2     0.900000E-01   1.00800           0
     10078 MEMB     82       DOPE     H2Y      HAL2     0.900000E-01   1.00800           0
     10079 MEMB     82       DOPE     C23      CTL2    -0.180000       12.0110           0
     10080 MEMB     82       DOPE     H3R      HAL2     0.900000E-01   1.00800           0
     10081 MEMB     82       DOPE     H3S      HAL2     0.900000E-01   1.00800           0
     10082 MEMB     82       DOPE     C24      CTL2    -0.180000       12.0110           0
     10083 MEMB     82       DOPE     H4R      HAL2     0.900000E-01   1.00800           0
     10084 MEMB     82       DOPE     H4S      HAL2     0.900000E-01   1.00800           0
     10085 MEMB     82       DOPE     C25      CTL2    -0.180000       12.0110           0
     10086 MEMB     82       DOPE     H5R      HAL2     0.900000E-01   1.00800           0
     10087 MEMB     82       DOPE     H5S      HAL2     0.900000E-01   1.00800           0
     10088 MEMB     82       DOPE     C26      CTL2    -0.180000       12.0110           0
     10089 MEMB     82       DOPE     H6R      HAL2     0.900000E-01   1.00800           0
     10090 MEMB     82       DOPE     H6S      HAL2     0.900000E-01   1.00800           0
     10091 MEMB     82       DOPE     C27      CTL2    -0.180000       12.0110           0
     10092 MEMB     82       DOPE     H7R      HAL2     0.900000E-01   1.00800           0
     10093 MEMB     82       DOPE     H7S      HAL2     0.900000E-01   1.00800           0
     10094 MEMB     82       DOPE     C28      CTL2    -0.180000       12.0110           0
     10095 MEMB     82       DOPE     H8R      HAL2     0.900000E-01   1.00800           0
     10096 MEMB     82       DOPE     H8S      HAL2     0.900000E-01   1.00800           0
     10097 MEMB     82       DOPE     C29      CEL1    -0.150000       12.0110           0
     10098 MEMB     82       DOPE     H9R      HEL1     0.150000       1.00800           0
     10099 MEMB     82       DOPE     C210     CEL1    -0.150000       12.0110           0
     10100 MEMB     82       DOPE     H10R     HEL1     0.150000       1.00800           0
     10101 MEMB     82       DOPE     C211     CTL2    -0.180000       12.0110           0
     10102 MEMB     82       DOPE     H11R     HAL2     0.900000E-01   1.00800           0
     10103 MEMB     82       DOPE     H11S     HAL2     0.900000E-01   1.00800           0
     10104 MEMB     82       DOPE     C212     CTL2    -0.180000       12.0110           0
     10105 MEMB     82       DOPE     H12R     HAL2     0.900000E-01   1.00800           0
     10106 MEMB     82       DOPE     H12S     HAL2     0.900000E-01   1.00800           0
     10107 MEMB     82       DOPE     C213     CTL2    -0.180000       12.0110           0
     10108 MEMB     82       DOPE     H13R     HAL2     0.900000E-01   1.00800           0
     10109 MEMB     82       DOPE     H13S     HAL2     0.900000E-01   1.00800           0
     10110 MEMB     82       DOPE     C214     CTL2    -0.180000       12.0110           0
     10111 MEMB     82       DOPE     H14R     HAL2     0.900000E-01   1.00800           0
     10112 MEMB     82       DOPE     H14S     HAL2     0.900000E-01   1.00800           0
     10113 MEMB     82       DOPE     C215     CTL2    -0.180000       12.0110           0
     10114 MEMB     82       DOPE     H15R     HAL2     0.900000E-01   1.00800           0
     10115 MEMB     82       DOPE     H15S     HAL2     0.900000E-01   1.00800           0
     10116 MEMB     82       DOPE     C216     CTL2    -0.180000       12.0110           0
     10117 MEMB     82       DOPE     H16R     HAL2     0.900000E-01   1.00800           0
     10118 MEMB     82       DOPE     H16S     HAL2     0.900000E-01   1.00800           0
     10119 MEMB     82       DOPE     C217     CTL2    -0.180000       12.0110           0
     10120 MEMB     82       DOPE     H17R     HAL2     0.900000E-01   1.00800           0
     10121 MEMB     82       DOPE     H17S     HAL2     0.900000E-01   1.00800           0
     10122 MEMB     82       DOPE     C218     CTL3    -0.270000       12.0110           0
     10123 MEMB     82       DOPE     H18R     HAL3     0.900000E-01   1.00800           0
     10124 MEMB     82       DOPE     H18S     HAL3     0.900000E-01   1.00800           0
     10125 MEMB     82       DOPE     H18T     HAL3     0.900000E-01   1.00800           0
     10126 MEMB     82       DOPE     C33      CTL2    -0.180000       12.0110           0
     10127 MEMB     82       DOPE     H3X      HAL2     0.900000E-01   1.00800           0
     10128 MEMB     82       DOPE     H3Y      HAL2     0.900000E-01   1.00800           0
     10129 MEMB     82       DOPE     C34      CTL2    -0.180000       12.0110           0
     10130 MEMB     82       DOPE     H4X      HAL2     0.900000E-01   1.00800           0
     10131 MEMB     82       DOPE     H4Y      HAL2     0.900000E-01   1.00800           0
     10132 MEMB     82       DOPE     C35      CTL2    -0.180000       12.0110           0
     10133 MEMB     82       DOPE     H5X      HAL2     0.900000E-01   1.00800           0
     10134 MEMB     82       DOPE     H5Y      HAL2     0.900000E-01   1.00800           0
     10135 MEMB     82       DOPE     C36      CTL2    -0.180000       12.0110           0
     10136 MEMB     82       DOPE     H6X      HAL2     0.900000E-01   1.00800           0
     10137 MEMB     82       DOPE     H6Y      HAL2     0.900000E-01   1.00800           0
     10138 MEMB     82       DOPE     C37      CTL2    -0.180000       12.0110           0
     10139 MEMB     82       DOPE     H7X      HAL2     0.900000E-01   1.00800           0
     10140 MEMB     82       DOPE     H7Y      HAL2     0.900000E-01   1.00800           0
     10141 MEMB     82       DOPE     C38      CTL2    -0.180000       12.0110           0
     10142 MEMB     82       DOPE     H8X      HAL2     0.900000E-01   1.00800           0
     10143 MEMB     82       DOPE     H8Y      HAL2     0.900000E-01   1.00800           0
     10144 MEMB     82       DOPE     C39      CEL1    -0.150000       12.0110           0
     10145 MEMB     82       DOPE     H9X      HEL1     0.150000       1.00800           0
     10146 MEMB     82       DOPE     C310     CEL1    -0.150000       12.0110           0
     10147 MEMB     82       DOPE     H10X     HEL1     0.150000       1.00800           0
     10148 MEMB     82       DOPE     C311     CTL2    -0.180000       12.0110           0
     10149 MEMB     82       DOPE     H11X     HAL2     0.900000E-01   1.00800           0
     10150 MEMB     82       DOPE     H11Y     HAL2     0.900000E-01   1.00800           0
     10151 MEMB     82       DOPE     C312     CTL2    -0.180000       12.0110           0
     10152 MEMB     82       DOPE     H12X     HAL2     0.900000E-01   1.00800           0
     10153 MEMB     82       DOPE     H12Y     HAL2     0.900000E-01   1.00800           0
     10154 MEMB     82       DOPE     C313     CTL2    -0.180000       12.0110           0
     10155 MEMB     82       DOPE     H13X     HAL2     0.900000E-01   1.00800           0
     10156 MEMB     82       DOPE     H13Y     HAL2     0.900000E-01   1.00800           0
     10157 MEMB     82       DOPE     C314     CTL2    -0.180000       12.0110           0
     10158 MEMB     82       DOPE     H14X     HAL2     0.900000E-01   1.00800           0
     10159 MEMB     82       DOPE     H14Y     HAL2     0.900000E-01   1.00800           0
     10160 MEMB     82       DOPE     C315     CTL2    -0.180000       12.0110           0
     10161 MEMB     82       DOPE     H15X     HAL2     0.900000E-01   1.00800           0
     10162 MEMB     82       DOPE     H15Y     HAL2     0.900000E-01   1.00800           0
     10163 MEMB     82       DOPE     C316     CTL2    -0.180000       12.0110           0
     10164 MEMB     82       DOPE     H16X     HAL2     0.900000E-01   1.00800           0
     10165 MEMB     82       DOPE     H16Y     HAL2     0.900000E-01   1.00800           0
     10166 MEMB     82       DOPE     C317     CTL2    -0.180000       12.0110           0
     10167 MEMB     82       DOPE     H17X     HAL2     0.900000E-01   1.00800           0
     10168 MEMB     82       DOPE     H17Y     HAL2     0.900000E-01   1.00800           0
     10169 MEMB     82       DOPE     C318     CTL3    -0.270000       12.0110           0
     10170 MEMB     82       DOPE     H18X     HAL3     0.900000E-01   1.00800           0
     10171 MEMB     82       DOPE     H18Y     HAL3     0.900000E-01   1.00800           0
     10172 MEMB     82       DOPE     H18Z     HAL3     0.900000E-01   1.00800           0
     10173 MEMB     83       DOPC     N        NTL     -0.600000       14.0070           0
     10174 MEMB     83       DOPC     C12      CTL2    -0.100000       12.0110           0
     10175 MEMB     83       DOPC     H12A     HL       0.250000       1.00800           0
     10176 MEMB     83       DOPC     H12B     HL       0.250000       1.00800           0
     10177 MEMB     83       DOPC     C13      CTL5    -0.350000       12.0110           0
     10178 MEMB     83       DOPC     H13A     HL       0.250000       1.00800           0
     10179 MEMB     83       DOPC     H13B     HL       0.250000       1.00800           0
     10180 MEMB     83       DOPC     H13C     HL       0.250000       1.00800           0
     10181 MEMB     83       DOPC     C14      CTL5    -0.350000       12.0110           0
     10182 MEMB     83       DOPC     H14A     HL       0.250000       1.00800           0
     10183 MEMB     83       DOPC     H14B     HL       0.250000       1.00800           0
     10184 MEMB     83       DOPC     H14C     HL       0.250000       1.00800           0
     10185 MEMB     83       DOPC     C15      CTL5    -0.350000       12.0110           0
     10186 MEMB     83       DOPC     H15A     HL       0.250000       1.00800           0
     10187 MEMB     83       DOPC     H15B     HL       0.250000       1.00800           0
     10188 MEMB     83       DOPC     H15C     HL       0.250000       1.00800           0
     10189 MEMB     83       DOPC     C11      CTL2    -0.800000E-01   12.0110           0
     10190 MEMB     83       DOPC     H11A     HAL2     0.900000E-01   1.00800           0
     10191 MEMB     83       DOPC     H11B     HAL2     0.900000E-01   1.00800           0
     10192 MEMB     83       DOPC     P        PL        1.50000       30.9740           0
     10193 MEMB     83       DOPC     O13      O2L     -0.780000       15.9994           0
     10194 MEMB     83       DOPC     O14      O2L     -0.780000       15.9994           0
     10195 MEMB     83       DOPC     O12      OSLP    -0.570000       15.9994           0
     10196 MEMB     83       DOPC     O11      OSLP    -0.570000       15.9994           0
     10197 MEMB     83       DOPC     C1       CTL2    -0.800000E-01   12.0110           0
     10198 MEMB     83       DOPC     HA       HAL2     0.900000E-01   1.00800           0
     10199 MEMB     83       DOPC     HB       HAL2     0.900000E-01   1.00800           0
     10200 MEMB     83       DOPC     C2       CTL1     0.170000       12.0110           0
     10201 MEMB     83       DOPC     HS       HAL1     0.900000E-01   1.00800           0
     10202 MEMB     83       DOPC     O21      OSL     -0.490000       15.9994           0
     10203 MEMB     83       DOPC     C21      CL       0.900000       12.0110           0
     10204 MEMB     83       DOPC     O22      OBL     -0.630000       15.9994           0
     10205 MEMB     83       DOPC     C22      CTL2    -0.220000       12.0110           0
     10206 MEMB     83       DOPC     H2R      HAL2     0.900000E-01   1.00800           0
     10207 MEMB     83       DOPC     H2S      HAL2     0.900000E-01   1.00800           0
     10208 MEMB     83       DOPC     C3       CTL2     0.800000E-01   12.0110           0
     10209 MEMB     83       DOPC     HX       HAL2     0.900000E-01   1.00800           0
     10210 MEMB     83       DOPC     HY       HAL2     0.900000E-01   1.00800           0
     10211 MEMB     83       DOPC     O31      OSL     -0.490000       15.9994           0
     10212 MEMB     83       DOPC     C31      CL       0.900000       12.0110           0
     10213 MEMB     83       DOPC     O32      OBL     -0.630000       15.9994           0
     10214 MEMB     83       DOPC     C32      CTL2    -0.220000       12.0110           0
     10215 MEMB     83       DOPC     H2X      HAL2     0.900000E-01   1.00800           0
     10216 MEMB     83       DOPC     H2Y      HAL2     0.900000E-01   1.00800           0
     10217 MEMB     83       DOPC     C23      CTL2    -0.180000       12.0110           0
     10218 MEMB     83       DOPC     H3R      HAL2     0.900000E-01   1.00800           0
     10219 MEMB     83       DOPC     H3S      HAL2     0.900000E-01   1.00800           0
     10220 MEMB     83       DOPC     C24      CTL2    -0.180000       12.0110           0
     10221 MEMB     83       DOPC     H4R      HAL2     0.900000E-01   1.00800           0
     10222 MEMB     83       DOPC     H4S      HAL2     0.900000E-01   1.00800           0
     10223 MEMB     83       DOPC     C25      CTL2    -0.180000       12.0110           0
     10224 MEMB     83       DOPC     H5R      HAL2     0.900000E-01   1.00800           0
     10225 MEMB     83       DOPC     H5S      HAL2     0.900000E-01   1.00800           0
     10226 MEMB     83       DOPC     C26      CTL2    -0.180000       12.0110           0
     10227 MEMB     83       DOPC     H6R      HAL2     0.900000E-01   1.00800           0
     10228 MEMB     83       DOPC     H6S      HAL2     0.900000E-01   1.00800           0
     10229 MEMB     83       DOPC     C27      CTL2    -0.180000       12.0110           0
     10230 MEMB     83       DOPC     H7R      HAL2     0.900000E-01   1.00800           0
     10231 MEMB     83       DOPC     H7S      HAL2     0.900000E-01   1.00800           0
     10232 MEMB     83       DOPC     C28      CTL2    -0.180000       12.0110           0
     10233 MEMB     83       DOPC     H8R      HAL2     0.900000E-01   1.00800           0
     10234 MEMB     83       DOPC     H8S      HAL2     0.900000E-01   1.00800           0
     10235 MEMB     83       DOPC     C29      CEL1    -0.150000       12.0110           0
     10236 MEMB     83       DOPC     H9R      HEL1     0.150000       1.00800           0
     10237 MEMB     83       DOPC     C210     CEL1    -0.150000       12.0110           0
     10238 MEMB     83       DOPC     H10R     HEL1     0.150000       1.00800           0
     10239 MEMB     83       DOPC     C211     CTL2    -0.180000       12.0110           0
     10240 MEMB     83       DOPC     H11R     HAL2     0.900000E-01   1.00800           0
     10241 MEMB     83       DOPC     H11S     HAL2     0.900000E-01   1.00800           0
     10242 MEMB     83       DOPC     C212     CTL2    -0.180000       12.0110           0
     10243 MEMB     83       DOPC     H12R     HAL2     0.900000E-01   1.00800           0
     10244 MEMB     83       DOPC     H12S     HAL2     0.900000E-01   1.00800           0
     10245 MEMB     83       DOPC     C213     CTL2    -0.180000       12.0110           0
     10246 MEMB     83       DOPC     H13R     HAL2     0.900000E-01   1.00800           0
     10247 MEMB     83       DOPC     H13S     HAL2     0.900000E-01   1.00800           0
     10248 MEMB     83       DOPC     C214     CTL2    -0.180000       12.0110           0
     10249 MEMB     83       DOPC     H14R     HAL2     0.900000E-01   1.00800           0
     10250 MEMB     83       DOPC     H14S     HAL2     0.900000E-01   1.00800           0
     10251 MEMB     83       DOPC     C215     CTL2    -0.180000       12.0110           0
     10252 MEMB     83       DOPC     H15R     HAL2     0.900000E-01   1.00800           0
     10253 MEMB     83       DOPC     H15S     HAL2     0.900000E-01   1.00800           0
     10254 MEMB     83       DOPC     C216     CTL2    -0.180000       12.0110           0
     10255 MEMB     83       DOPC     H16R     HAL2     0.900000E-01   1.00800           0
     10256 MEMB     83       DOPC     H16S     HAL2     0.900000E-01   1.00800           0
     10257 MEMB     83       DOPC     C217     CTL2    -0.180000       12.0110           0
     10258 MEMB     83       DOPC     H17R     HAL2     0.900000E-01   1.00800           0
     10259 MEMB     83       DOPC     H17S     HAL2     0.900000E-01   1.00800           0
     10260 MEMB     83       DOPC     C218     CTL3    -0.270000       12.0110           0
     10261 MEMB     83       DOPC     H18R     HAL3     0.900000E-01   1.00800           0
     10262 MEMB     83       DOPC     H18S     HAL3     0.900000E-01   1.00800           0
     10263 MEMB     83       DOPC     H18T     HAL3     0.900000E-01   1.00800           0
     10264 MEMB     83       DOPC     C33      CTL2    -0.180000       12.0110           0
     10265 MEMB     83       DOPC     H3X      HAL2     0.900000E-01   1.00800           0
     10266 MEMB     83       DOPC     H3Y      HAL2     0.900000E-01   1.00800           0
     10267 MEMB     83       DOPC     C34      CTL2    -0.180000       12.0110           0
     10268 MEMB     83       DOPC     H4X      HAL2     0.900000E-01   1.00800           0
     10269 MEMB     83       DOPC     H4Y      HAL2     0.900000E-01   1.00800           0
     10270 MEMB     83       DOPC     C35      CTL2    -0.180000       12.0110           0
     10271 MEMB     83       DOPC     H5X      HAL2     0.900000E-01   1.00800           0
     10272 MEMB     83       DOPC     H5Y      HAL2     0.900000E-01   1.00800           0
     10273 MEMB     83       DOPC     C36      CTL2    -0.180000       12.0110           0
     10274 MEMB     83       DOPC     H6X      HAL2     0.900000E-01   1.00800           0
     10275 MEMB     83       DOPC     H6Y      HAL2     0.900000E-01   1.00800           0
     10276 MEMB     83       DOPC     C37      CTL2    -0.180000       12.0110           0
     10277 MEMB     83       DOPC     H7X      HAL2     0.900000E-01   1.00800           0
     10278 MEMB     83       DOPC     H7Y      HAL2     0.900000E-01   1.00800           0
     10279 MEMB     83       DOPC     C38      CTL2    -0.180000       12.0110           0
     10280 MEMB     83       DOPC     H8X      HAL2     0.900000E-01   1.00800           0
     10281 MEMB     83       DOPC     H8Y      HAL2     0.900000E-01   1.00800           0
     10282 MEMB     83       DOPC     C39      CEL1    -0.150000       12.0110           0
     10283 MEMB     83       DOPC     H9X      HEL1     0.150000       1.00800           0
     10284 MEMB     83       DOPC     C310     CEL1    -0.150000       12.0110           0
     10285 MEMB     83       DOPC     H10X     HEL1     0.150000       1.00800           0
     10286 MEMB     83       DOPC     C311     CTL2    -0.180000       12.0110           0
     10287 MEMB     83       DOPC     H11X     HAL2     0.900000E-01   1.00800           0
     10288 MEMB     83       DOPC     H11Y     HAL2     0.900000E-01   1.00800           0
     10289 MEMB     83       DOPC     C312     CTL2    -0.180000       12.0110           0
     10290 MEMB     83       DOPC     H12X     HAL2     0.900000E-01   1.00800           0
     10291 MEMB     83       DOPC     H12Y     HAL2     0.900000E-01   1.00800           0
     10292 MEMB     83       DOPC     C313     CTL2    -0.180000       12.0110           0
     10293 MEMB     83       DOPC     H13X     HAL2     0.900000E-01   1.00800           0
     10294 MEMB     83       DOPC     H13Y     HAL2     0.900000E-01   1.00800           0
     10295 MEMB     83       DOPC     C314     CTL2    -0.180000       12.0110           0
     10296 MEMB     83       DOPC     H14X     HAL2     0.900000E-01   1.00800           0
     10297 MEMB     83       DOPC     H14Y     HAL2     0.900000E-01   1.00800           0
     10298 MEMB     83       DOPC     C315     CTL2    -0.180000       12.0110           0
     10299 MEMB     83       DOPC     H15X     HAL2     0.900000E-01   1.00800           0
     10300 MEMB     83       DOPC     H15Y     HAL2     0.900000E-01   1.00800           0
     10301 MEMB     83       DOPC     C316     CTL2    -0.180000       12.0110           0
     10302 MEMB     83       DOPC     H16X     HAL2     0.900000E-01   1.00800           0
     10303 MEMB     83       DOPC     H16Y     HAL2     0.900000E-01   1.00800           0
     10304 MEMB     83       DOPC     C317     CTL2    -0.180000       12.0110           0
     10305 MEMB     83       DOPC     H17X     HAL2     0.900000E-01   1.00800           0
     10306 MEMB     83       DOPC     H17Y     HAL2     0.900000E-01   1.00800           0
     10307 MEMB     83       DOPC     C318     CTL3    -0.270000       12.0110           0
     10308 MEMB     83       DOPC     H18X     HAL3     0.900000E-01   1.00800           0
     10309 MEMB     83       DOPC     H18Y     HAL3     0.900000E-01   1.00800           0
     10310 MEMB     83       DOPC     H18Z     HAL3     0.900000E-01   1.00800           0
     10311 MEMB     84       23SM     N        NTL     -0.600000       14.0070           0
     10312 MEMB     84       23SM     C15      CTL5    -0.350000       12.0110           0
     10313 MEMB     84       23SM     H15A     HL       0.250000       1.00800           0
     10314 MEMB     84       23SM     H15B     HL       0.250000       1.00800           0
     10315 MEMB     84       23SM     H15C     HL       0.250000       1.00800           0
     10316 MEMB     84       23SM     C14      CTL5    -0.350000       12.0110           0
     10317 MEMB     84       23SM     H14A     HL       0.250000       1.00800           0
     10318 MEMB     84       23SM     H14B     HL       0.250000       1.00800           0
     10319 MEMB     84       23SM     H14C     HL       0.250000       1.00800           0
     10320 MEMB     84       23SM     C13      CTL5    -0.350000       12.0110           0
     10321 MEMB     84       23SM     H13A     HL       0.250000       1.00800           0
     10322 MEMB     84       23SM     H13B     HL       0.250000       1.00800           0
     10323 MEMB     84       23SM     H13C     HL       0.250000       1.00800           0
     10324 MEMB     84       23SM     C12      CTL2    -0.100000       12.0110           0
     10325 MEMB     84       23SM     H12A     HL       0.250000       1.00800           0
     10326 MEMB     84       23SM     H12B     HL       0.250000       1.00800           0
     10327 MEMB     84       23SM     C11      CTL2    -0.800000E-01   12.0110           0
     10328 MEMB     84       23SM     H11A     HAL2     0.900000E-01   1.00800           0
     10329 MEMB     84       23SM     H11B     HAL2     0.900000E-01   1.00800           0
     10330 MEMB     84       23SM     P        PL        1.50000       30.9740           0
     10331 MEMB     84       23SM     O13      O2L     -0.780000       15.9994           0
     10332 MEMB     84       23SM     O14      O2L     -0.780000       15.9994           0
     10333 MEMB     84       23SM     O11      OSLP    -0.570000       15.9994           0
     10334 MEMB     84       23SM     O12      OSLP    -0.570000       15.9994           0
     10335 MEMB     84       23SM     C1S      CTL2    -0.800000E-01   12.0110           0
     10336 MEMB     84       23SM     H1S      HAL2     0.900000E-01   1.00800           0
     10337 MEMB     84       23SM     H1T      HAL2     0.900000E-01   1.00800           0
     10338 MEMB     84       23SM     NF       NHL     -0.700000       14.0070           0
     10339 MEMB     84       23SM     HNF      H        0.350000       1.00800           0
     10340 MEMB     84       23SM     C2S      CTL1     0.300000       12.0110           0
     10341 MEMB     84       23SM     H2S      HAL1     0.500000E-01   1.00800           0
     10342 MEMB     84       23SM     C3S      CTO1     0.500000       12.0110           0
     10343 MEMB     84       23SM     H3S      HAL1    -0.110000       1.00800           0
     10344 MEMB     84       23SM     O3       OHL     -0.690000       15.9994           0
     10345 MEMB     84       23SM     HO3      HOL      0.300000       1.00800           0
     10346 MEMB     84       23SM     C4S      CEL3    -0.150000       12.0110           0
     10347 MEMB     84       23SM     H4S      HEL1     0.150000       1.00800           0
     10348 MEMB     84       23SM     C5S      CEL3    -0.150000       12.0110           0
     10349 MEMB     84       23SM     H5S      HEL1     0.150000       1.00800           0
     10350 MEMB     84       23SM     C6S      CTL2    -0.180000       12.0110           0
     10351 MEMB     84       23SM     H6S      HAL2     0.900000E-01   1.00800           0
     10352 MEMB     84       23SM     H6T      HAL2     0.900000E-01   1.00800           0
     10353 MEMB     84       23SM     C7S      CTL2    -0.180000       12.0110           0
     10354 MEMB     84       23SM     H7S      HAL2     0.900000E-01   1.00800           0
     10355 MEMB     84       23SM     H7T      HAL2     0.900000E-01   1.00800           0
     10356 MEMB     84       23SM     C8S      CTL2    -0.180000       12.0110           0
     10357 MEMB     84       23SM     H8S      HAL2     0.900000E-01   1.00800           0
     10358 MEMB     84       23SM     H8T      HAL2     0.900000E-01   1.00800           0
     10359 MEMB     84       23SM     C9S      CTL2    -0.180000       12.0110           0
     10360 MEMB     84       23SM     H9S      HAL2     0.900000E-01   1.00800           0
     10361 MEMB     84       23SM     H9T      HAL2     0.900000E-01   1.00800           0
     10362 MEMB     84       23SM     C10S     CTL2    -0.180000       12.0110           0
     10363 MEMB     84       23SM     H10S     HAL2     0.900000E-01   1.00800           0
     10364 MEMB     84       23SM     H10T     HAL2     0.900000E-01   1.00800           0
     10365 MEMB     84       23SM     C11S     CTL2    -0.180000       12.0110           0
     10366 MEMB     84       23SM     H11S     HAL2     0.900000E-01   1.00800           0
     10367 MEMB     84       23SM     H11T     HAL2     0.900000E-01   1.00800           0
     10368 MEMB     84       23SM     C12S     CTL2    -0.180000       12.0110           0
     10369 MEMB     84       23SM     H12S     HAL2     0.900000E-01   1.00800           0
     10370 MEMB     84       23SM     H12T     HAL2     0.900000E-01   1.00800           0
     10371 MEMB     84       23SM     C13S     CTL2    -0.180000       12.0110           0
     10372 MEMB     84       23SM     H13S     HAL2     0.900000E-01   1.00800           0
     10373 MEMB     84       23SM     H13T     HAL2     0.900000E-01   1.00800           0
     10374 MEMB     84       23SM     C14S     CTL2    -0.180000       12.0110           0
     10375 MEMB     84       23SM     H14S     HAL2     0.900000E-01   1.00800           0
     10376 MEMB     84       23SM     H14T     HAL2     0.900000E-01   1.00800           0
     10377 MEMB     84       23SM     C15S     CTL2    -0.180000       12.0110           0
     10378 MEMB     84       23SM     H15S     HAL2     0.900000E-01   1.00800           0
     10379 MEMB     84       23SM     H15T     HAL2     0.900000E-01   1.00800           0
     10380 MEMB     84       23SM     C16S     CTL2    -0.180000       12.0110           0
     10381 MEMB     84       23SM     H16S     HAL2     0.900000E-01   1.00800           0
     10382 MEMB     84       23SM     H16T     HAL2     0.900000E-01   1.00800           0
     10383 MEMB     84       23SM     C17S     CTL2    -0.180000       12.0110           0
     10384 MEMB     84       23SM     H17S     HAL2     0.900000E-01   1.00800           0
     10385 MEMB     84       23SM     H17T     HAL2     0.900000E-01   1.00800           0
     10386 MEMB     84       23SM     C18S     CTL3    -0.270000       12.0110           0
     10387 MEMB     84       23SM     H18S     HAL3     0.900000E-01   1.00800           0
     10388 MEMB     84       23SM     H18T     HAL3     0.900000E-01   1.00800           0
     10389 MEMB     84       23SM     H18U     HAL3     0.900000E-01   1.00800           0
     10390 MEMB     84       23SM     C1F      C        0.550000       12.0110           0
     10391 MEMB     84       23SM     OF       O       -0.600000       15.9994           0
     10392 MEMB     84       23SM     C2F      CTL2    -0.700000E-01   12.0110           0
     10393 MEMB     84       23SM     H2F      HAL2     0.600000E-01   1.00800           0
     10394 MEMB     84       23SM     H2G      HAL2     0.600000E-01   1.00800           0
     10395 MEMB     84       23SM     C3F      CTL2    -0.180000       12.0110           0
     10396 MEMB     84       23SM     H3F      HAL2     0.900000E-01   1.00800           0
     10397 MEMB     84       23SM     H3G      HAL2     0.900000E-01   1.00800           0
     10398 MEMB     84       23SM     C4F      CTL2    -0.180000       12.0110           0
     10399 MEMB     84       23SM     H4F      HAL2     0.900000E-01   1.00800           0
     10400 MEMB     84       23SM     H4G      HAL2     0.900000E-01   1.00800           0
     10401 MEMB     84       23SM     C5F      CTL2    -0.180000       12.0110           0
     10402 MEMB     84       23SM     H5F      HAL2     0.900000E-01   1.00800           0
     10403 MEMB     84       23SM     H5G      HAL2     0.900000E-01   1.00800           0
     10404 MEMB     84       23SM     C6F      CTL2    -0.180000       12.0110           0
     10405 MEMB     84       23SM     H6F      HAL2     0.900000E-01   1.00800           0
     10406 MEMB     84       23SM     H6G      HAL2     0.900000E-01   1.00800           0
     10407 MEMB     84       23SM     C7F      CTL2    -0.180000       12.0110           0
     10408 MEMB     84       23SM     H7F      HAL2     0.900000E-01   1.00800           0
     10409 MEMB     84       23SM     H7G      HAL2     0.900000E-01   1.00800           0
     10410 MEMB     84       23SM     C8F      CTL2    -0.180000       12.0110           0
     10411 MEMB     84       23SM     H8F      HAL2     0.900000E-01   1.00800           0
     10412 MEMB     84       23SM     H8G      HAL2     0.900000E-01   1.00800           0
     10413 MEMB     84       23SM     C9F      CTL2    -0.180000       12.0110           0
     10414 MEMB     84       23SM     H9F      HAL2     0.900000E-01   1.00800           0
     10415 MEMB     84       23SM     H9G      HAL2     0.900000E-01   1.00800           0
     10416 MEMB     84       23SM     C10F     CTL2    -0.180000       12.0110           0
     10417 MEMB     84       23SM     H10F     HAL2     0.900000E-01   1.00800           0
     10418 MEMB     84       23SM     H10G     HAL2     0.900000E-01   1.00800           0
     10419 MEMB     84       23SM     C11F     CTL2    -0.180000       12.0110           0
     10420 MEMB     84       23SM     H11F     HAL2     0.900000E-01   1.00800           0
     10421 MEMB     84       23SM     H11G     HAL2     0.900000E-01   1.00800           0
     10422 MEMB     84       23SM     C12F     CTL2    -0.180000       12.0110           0
     10423 MEMB     84       23SM     H12F     HAL2     0.900000E-01   1.00800           0
     10424 MEMB     84       23SM     H12G     HAL2     0.900000E-01   1.00800           0
     10425 MEMB     84       23SM     C13F     CTL2    -0.180000       12.0110           0
     10426 MEMB     84       23SM     H13F     HAL2     0.900000E-01   1.00800           0
     10427 MEMB     84       23SM     H13G     HAL2     0.900000E-01   1.00800           0
     10428 MEMB     84       23SM     C14F     CTL2    -0.180000       12.0110           0
     10429 MEMB     84       23SM     H14F     HAL2     0.900000E-01   1.00800           0
     10430 MEMB     84       23SM     H14G     HAL2     0.900000E-01   1.00800           0
     10431 MEMB     84       23SM     C15F     CTL2    -0.180000       12.0110           0
     10432 MEMB     84       23SM     H15F     HAL2     0.900000E-01   1.00800           0
     10433 MEMB     84       23SM     H15G     HAL2     0.900000E-01   1.00800           0
     10434 MEMB     84       23SM     C16F     CTL2    -0.180000       12.0110           0
     10435 MEMB     84       23SM     H16F     HAL2     0.900000E-01   1.00800           0
     10436 MEMB     84       23SM     H16G     HAL2     0.900000E-01   1.00800           0
     10437 MEMB     84       23SM     C17F     CTL2    -0.180000       12.0110           0
     10438 MEMB     84       23SM     H17F     HAL2     0.900000E-01   1.00800           0
     10439 MEMB     84       23SM     H17G     HAL2     0.900000E-01   1.00800           0
     10440 MEMB     84       23SM     C18F     CTL2    -0.180000       12.0110           0
     10441 MEMB     84       23SM     H18F     HAL2     0.900000E-01   1.00800           0
     10442 MEMB     84       23SM     H18G     HAL2     0.900000E-01   1.00800           0
     10443 MEMB     84       23SM     C19F     CTL2    -0.180000       12.0110           0
     10444 MEMB     84       23SM     H19F     HAL2     0.900000E-01   1.00800           0
     10445 MEMB     84       23SM     H19G     HAL2     0.900000E-01   1.00800           0
     10446 MEMB     84       23SM     C20F     CTL2    -0.180000       12.0110           0
     10447 MEMB     84       23SM     H20F     HAL2     0.900000E-01   1.00800           0
     10448 MEMB     84       23SM     H20G     HAL2     0.900000E-01   1.00800           0
     10449 MEMB     84       23SM     C21F     CTL2    -0.180000       12.0110           0
     10450 MEMB     84       23SM     H21F     HAL2     0.900000E-01   1.00800           0
     10451 MEMB     84       23SM     H21G     HAL2     0.900000E-01   1.00800           0
     10452 MEMB     84       23SM     C22F     CTL2    -0.180000       12.0110           0
     10453 MEMB     84       23SM     H22F     HAL2     0.900000E-01   1.00800           0
     10454 MEMB     84       23SM     H22G     HAL2     0.900000E-01   1.00800           0
     10455 MEMB     84       23SM     C23F     CTL3    -0.270000       12.0110           0
     10456 MEMB     84       23SM     H23F     HAL3     0.900000E-01   1.00800           0
     10457 MEMB     84       23SM     H23G     HAL3     0.900000E-01   1.00800           0
     10458 MEMB     84       23SM     H23H     HAL3     0.900000E-01   1.00800           0
     10459 MEMB     85       DOPC     N        NTL     -0.600000       14.0070           0
     10460 MEMB     85       DOPC     C12      CTL2    -0.100000       12.0110           0
     10461 MEMB     85       DOPC     H12A     HL       0.250000       1.00800           0
     10462 MEMB     85       DOPC     H12B     HL       0.250000       1.00800           0
     10463 MEMB     85       DOPC     C13      CTL5    -0.350000       12.0110           0
     10464 MEMB     85       DOPC     H13A     HL       0.250000       1.00800           0
     10465 MEMB     85       DOPC     H13B     HL       0.250000       1.00800           0
     10466 MEMB     85       DOPC     H13C     HL       0.250000       1.00800           0
     10467 MEMB     85       DOPC     C14      CTL5    -0.350000       12.0110           0
     10468 MEMB     85       DOPC     H14A     HL       0.250000       1.00800           0
     10469 MEMB     85       DOPC     H14B     HL       0.250000       1.00800           0
     10470 MEMB     85       DOPC     H14C     HL       0.250000       1.00800           0
     10471 MEMB     85       DOPC     C15      CTL5    -0.350000       12.0110           0
     10472 MEMB     85       DOPC     H15A     HL       0.250000       1.00800           0
     10473 MEMB     85       DOPC     H15B     HL       0.250000       1.00800           0
     10474 MEMB     85       DOPC     H15C     HL       0.250000       1.00800           0
     10475 MEMB     85       DOPC     C11      CTL2    -0.800000E-01   12.0110           0
     10476 MEMB     85       DOPC     H11A     HAL2     0.900000E-01   1.00800           0
     10477 MEMB     85       DOPC     H11B     HAL2     0.900000E-01   1.00800           0
     10478 MEMB     85       DOPC     P        PL        1.50000       30.9740           0
     10479 MEMB     85       DOPC     O13      O2L     -0.780000       15.9994           0
     10480 MEMB     85       DOPC     O14      O2L     -0.780000       15.9994           0
     10481 MEMB     85       DOPC     O12      OSLP    -0.570000       15.9994           0
     10482 MEMB     85       DOPC     O11      OSLP    -0.570000       15.9994           0
     10483 MEMB     85       DOPC     C1       CTL2    -0.800000E-01   12.0110           0
     10484 MEMB     85       DOPC     HA       HAL2     0.900000E-01   1.00800           0
     10485 MEMB     85       DOPC     HB       HAL2     0.900000E-01   1.00800           0
     10486 MEMB     85       DOPC     C2       CTL1     0.170000       12.0110           0
     10487 MEMB     85       DOPC     HS       HAL1     0.900000E-01   1.00800           0
     10488 MEMB     85       DOPC     O21      OSL     -0.490000       15.9994           0
     10489 MEMB     85       DOPC     C21      CL       0.900000       12.0110           0
     10490 MEMB     85       DOPC     O22      OBL     -0.630000       15.9994           0
     10491 MEMB     85       DOPC     C22      CTL2    -0.220000       12.0110           0
     10492 MEMB     85       DOPC     H2R      HAL2     0.900000E-01   1.00800           0
     10493 MEMB     85       DOPC     H2S      HAL2     0.900000E-01   1.00800           0
     10494 MEMB     85       DOPC     C3       CTL2     0.800000E-01   12.0110           0
     10495 MEMB     85       DOPC     HX       HAL2     0.900000E-01   1.00800           0
     10496 MEMB     85       DOPC     HY       HAL2     0.900000E-01   1.00800           0
     10497 MEMB     85       DOPC     O31      OSL     -0.490000       15.9994           0
     10498 MEMB     85       DOPC     C31      CL       0.900000       12.0110           0
     10499 MEMB     85       DOPC     O32      OBL     -0.630000       15.9994           0
     10500 MEMB     85       DOPC     C32      CTL2    -0.220000       12.0110           0
     10501 MEMB     85       DOPC     H2X      HAL2     0.900000E-01   1.00800           0
     10502 MEMB     85       DOPC     H2Y      HAL2     0.900000E-01   1.00800           0
     10503 MEMB     85       DOPC     C23      CTL2    -0.180000       12.0110           0
     10504 MEMB     85       DOPC     H3R      HAL2     0.900000E-01   1.00800           0
     10505 MEMB     85       DOPC     H3S      HAL2     0.900000E-01   1.00800           0
     10506 MEMB     85       DOPC     C24      CTL2    -0.180000       12.0110           0
     10507 MEMB     85       DOPC     H4R      HAL2     0.900000E-01   1.00800           0
     10508 MEMB     85       DOPC     H4S      HAL2     0.900000E-01   1.00800           0
     10509 MEMB     85       DOPC     C25      CTL2    -0.180000       12.0110           0
     10510 MEMB     85       DOPC     H5R      HAL2     0.900000E-01   1.00800           0
     10511 MEMB     85       DOPC     H5S      HAL2     0.900000E-01   1.00800           0
     10512 MEMB     85       DOPC     C26      CTL2    -0.180000       12.0110           0
     10513 MEMB     85       DOPC     H6R      HAL2     0.900000E-01   1.00800           0
     10514 MEMB     85       DOPC     H6S      HAL2     0.900000E-01   1.00800           0
     10515 MEMB     85       DOPC     C27      CTL2    -0.180000       12.0110           0
     10516 MEMB     85       DOPC     H7R      HAL2     0.900000E-01   1.00800           0
     10517 MEMB     85       DOPC     H7S      HAL2     0.900000E-01   1.00800           0
     10518 MEMB     85       DOPC     C28      CTL2    -0.180000       12.0110           0
     10519 MEMB     85       DOPC     H8R      HAL2     0.900000E-01   1.00800           0
     10520 MEMB     85       DOPC     H8S      HAL2     0.900000E-01   1.00800           0
     10521 MEMB     85       DOPC     C29      CEL1    -0.150000       12.0110           0
     10522 MEMB     85       DOPC     H9R      HEL1     0.150000       1.00800           0
     10523 MEMB     85       DOPC     C210     CEL1    -0.150000       12.0110           0
     10524 MEMB     85       DOPC     H10R     HEL1     0.150000       1.00800           0
     10525 MEMB     85       DOPC     C211     CTL2    -0.180000       12.0110           0
     10526 MEMB     85       DOPC     H11R     HAL2     0.900000E-01   1.00800           0
     10527 MEMB     85       DOPC     H11S     HAL2     0.900000E-01   1.00800           0
     10528 MEMB     85       DOPC     C212     CTL2    -0.180000       12.0110           0
     10529 MEMB     85       DOPC     H12R     HAL2     0.900000E-01   1.00800           0
     10530 MEMB     85       DOPC     H12S     HAL2     0.900000E-01   1.00800           0
     10531 MEMB     85       DOPC     C213     CTL2    -0.180000       12.0110           0
     10532 MEMB     85       DOPC     H13R     HAL2     0.900000E-01   1.00800           0
     10533 MEMB     85       DOPC     H13S     HAL2     0.900000E-01   1.00800           0
     10534 MEMB     85       DOPC     C214     CTL2    -0.180000       12.0110           0
     10535 MEMB     85       DOPC     H14R     HAL2     0.900000E-01   1.00800           0
     10536 MEMB     85       DOPC     H14S     HAL2     0.900000E-01   1.00800           0
     10537 MEMB     85       DOPC     C215     CTL2    -0.180000       12.0110           0
     10538 MEMB     85       DOPC     H15R     HAL2     0.900000E-01   1.00800           0
     10539 MEMB     85       DOPC     H15S     HAL2     0.900000E-01   1.00800           0
     10540 MEMB     85       DOPC     C216     CTL2    -0.180000       12.0110           0
     10541 MEMB     85       DOPC     H16R     HAL2     0.900000E-01   1.00800           0
     10542 MEMB     85       DOPC     H16S     HAL2     0.900000E-01   1.00800           0
     10543 MEMB     85       DOPC     C217     CTL2    -0.180000       12.0110           0
     10544 MEMB     85       DOPC     H17R     HAL2     0.900000E-01   1.00800           0
     10545 MEMB     85       DOPC     H17S     HAL2     0.900000E-01   1.00800           0
     10546 MEMB     85       DOPC     C218     CTL3    -0.270000       12.0110           0
     10547 MEMB     85       DOPC     H18R     HAL3     0.900000E-01   1.00800           0
     10548 MEMB     85       DOPC     H18S     HAL3     0.900000E-01   1.00800           0
     10549 MEMB     85       DOPC     H18T     HAL3     0.900000E-01   1.00800           0
     10550 MEMB     85       DOPC     C33      CTL2    -0.180000       12.0110           0
     10551 MEMB     85       DOPC     H3X      HAL2     0.900000E-01   1.00800           0
     10552 MEMB     85       DOPC     H3Y      HAL2     0.900000E-01   1.00800           0
     10553 MEMB     85       DOPC     C34      CTL2    -0.180000       12.0110           0
     10554 MEMB     85       DOPC     H4X      HAL2     0.900000E-01   1.00800           0
     10555 MEMB     85       DOPC     H4Y      HAL2     0.900000E-01   1.00800           0
     10556 MEMB     85       DOPC     C35      CTL2    -0.180000       12.0110           0
     10557 MEMB     85       DOPC     H5X      HAL2     0.900000E-01   1.00800           0
     10558 MEMB     85       DOPC     H5Y      HAL2     0.900000E-01   1.00800           0
     10559 MEMB     85       DOPC     C36      CTL2    -0.180000       12.0110           0
     10560 MEMB     85       DOPC     H6X      HAL2     0.900000E-01   1.00800           0
     10561 MEMB     85       DOPC     H6Y      HAL2     0.900000E-01   1.00800           0
     10562 MEMB     85       DOPC     C37      CTL2    -0.180000       12.0110           0
     10563 MEMB     85       DOPC     H7X      HAL2     0.900000E-01   1.00800           0
     10564 MEMB     85       DOPC     H7Y      HAL2     0.900000E-01   1.00800           0
     10565 MEMB     85       DOPC     C38      CTL2    -0.180000       12.0110           0
     10566 MEMB     85       DOPC     H8X      HAL2     0.900000E-01   1.00800           0
     10567 MEMB     85       DOPC     H8Y      HAL2     0.900000E-01   1.00800           0
     10568 MEMB     85       DOPC     C39      CEL1    -0.150000       12.0110           0
     10569 MEMB     85       DOPC     H9X      HEL1     0.150000       1.00800           0
     10570 MEMB     85       DOPC     C310     CEL1    -0.150000       12.0110           0
     10571 MEMB     85       DOPC     H10X     HEL1     0.150000       1.00800           0
     10572 MEMB     85       DOPC     C311     CTL2    -0.180000       12.0110           0
     10573 MEMB     85       DOPC     H11X     HAL2     0.900000E-01   1.00800           0
     10574 MEMB     85       DOPC     H11Y     HAL2     0.900000E-01   1.00800           0
     10575 MEMB     85       DOPC     C312     CTL2    -0.180000       12.0110           0
     10576 MEMB     85       DOPC     H12X     HAL2     0.900000E-01   1.00800           0
     10577 MEMB     85       DOPC     H12Y     HAL2     0.900000E-01   1.00800           0
     10578 MEMB     85       DOPC     C313     CTL2    -0.180000       12.0110           0
     10579 MEMB     85       DOPC     H13X     HAL2     0.900000E-01   1.00800           0
     10580 MEMB     85       DOPC     H13Y     HAL2     0.900000E-01   1.00800           0
     10581 MEMB     85       DOPC     C314     CTL2    -0.180000       12.0110           0
     10582 MEMB     85       DOPC     H14X     HAL2     0.900000E-01   1.00800           0
     10583 MEMB     85       DOPC     H14Y     HAL2     0.900000E-01   1.00800           0
     10584 MEMB     85       DOPC     C315     CTL2    -0.180000       12.0110           0
     10585 MEMB     85       DOPC     H15X     HAL2     0.900000E-01   1.00800           0
     10586 MEMB     85       DOPC     H15Y     HAL2     0.900000E-01   1.00800           0
     10587 MEMB     85       DOPC     C316     CTL2    -0.180000       12.0110           0
     10588 MEMB     85       DOPC     H16X     HAL2     0.900000E-01   1.00800           0
     10589 MEMB     85       DOPC     H16Y     HAL2     0.900000E-01   1.00800           0
     10590 MEMB     85       DOPC     C317     CTL2    -0.180000       12.0110           0
     10591 MEMB     85       DOPC     H17X     HAL2     0.900000E-01   1.00800           0
     10592 MEMB     85       DOPC     H17Y     HAL2     0.900000E-01   1.00800           0
     10593 MEMB     85       DOPC     C318     CTL3    -0.270000       12.0110           0
     10594 MEMB     85       DOPC     H18X     HAL3     0.900000E-01   1.00800           0
     10595 MEMB     85       DOPC     H18Y     HAL3     0.900000E-01   1.00800           0
     10596 MEMB     85       DOPC     H18Z     HAL3     0.900000E-01   1.00800           0
     10597 MEMB     86       DOPC     N        NTL     -0.600000       14.0070           0
     10598 MEMB     86       DOPC     C12      CTL2    -0.100000       12.0110           0
     10599 MEMB     86       DOPC     H12A     HL       0.250000       1.00800           0
     10600 MEMB     86       DOPC     H12B     HL       0.250000       1.00800           0
     10601 MEMB     86       DOPC     C13      CTL5    -0.350000       12.0110           0
     10602 MEMB     86       DOPC     H13A     HL       0.250000       1.00800           0
     10603 MEMB     86       DOPC     H13B     HL       0.250000       1.00800           0
     10604 MEMB     86       DOPC     H13C     HL       0.250000       1.00800           0
     10605 MEMB     86       DOPC     C14      CTL5    -0.350000       12.0110           0
     10606 MEMB     86       DOPC     H14A     HL       0.250000       1.00800           0
     10607 MEMB     86       DOPC     H14B     HL       0.250000       1.00800           0
     10608 MEMB     86       DOPC     H14C     HL       0.250000       1.00800           0
     10609 MEMB     86       DOPC     C15      CTL5    -0.350000       12.0110           0
     10610 MEMB     86       DOPC     H15A     HL       0.250000       1.00800           0
     10611 MEMB     86       DOPC     H15B     HL       0.250000       1.00800           0
     10612 MEMB     86       DOPC     H15C     HL       0.250000       1.00800           0
     10613 MEMB     86       DOPC     C11      CTL2    -0.800000E-01   12.0110           0
     10614 MEMB     86       DOPC     H11A     HAL2     0.900000E-01   1.00800           0
     10615 MEMB     86       DOPC     H11B     HAL2     0.900000E-01   1.00800           0
     10616 MEMB     86       DOPC     P        PL        1.50000       30.9740           0
     10617 MEMB     86       DOPC     O13      O2L     -0.780000       15.9994           0
     10618 MEMB     86       DOPC     O14      O2L     -0.780000       15.9994           0
     10619 MEMB     86       DOPC     O12      OSLP    -0.570000       15.9994           0
     10620 MEMB     86       DOPC     O11      OSLP    -0.570000       15.9994           0
     10621 MEMB     86       DOPC     C1       CTL2    -0.800000E-01   12.0110           0
     10622 MEMB     86       DOPC     HA       HAL2     0.900000E-01   1.00800           0
     10623 MEMB     86       DOPC     HB       HAL2     0.900000E-01   1.00800           0
     10624 MEMB     86       DOPC     C2       CTL1     0.170000       12.0110           0
     10625 MEMB     86       DOPC     HS       HAL1     0.900000E-01   1.00800           0
     10626 MEMB     86       DOPC     O21      OSL     -0.490000       15.9994           0
     10627 MEMB     86       DOPC     C21      CL       0.900000       12.0110           0
     10628 MEMB     86       DOPC     O22      OBL     -0.630000       15.9994           0
     10629 MEMB     86       DOPC     C22      CTL2    -0.220000       12.0110           0
     10630 MEMB     86       DOPC     H2R      HAL2     0.900000E-01   1.00800           0
     10631 MEMB     86       DOPC     H2S      HAL2     0.900000E-01   1.00800           0
     10632 MEMB     86       DOPC     C3       CTL2     0.800000E-01   12.0110           0
     10633 MEMB     86       DOPC     HX       HAL2     0.900000E-01   1.00800           0
     10634 MEMB     86       DOPC     HY       HAL2     0.900000E-01   1.00800           0
     10635 MEMB     86       DOPC     O31      OSL     -0.490000       15.9994           0
     10636 MEMB     86       DOPC     C31      CL       0.900000       12.0110           0
     10637 MEMB     86       DOPC     O32      OBL     -0.630000       15.9994           0
     10638 MEMB     86       DOPC     C32      CTL2    -0.220000       12.0110           0
     10639 MEMB     86       DOPC     H2X      HAL2     0.900000E-01   1.00800           0
     10640 MEMB     86       DOPC     H2Y      HAL2     0.900000E-01   1.00800           0
     10641 MEMB     86       DOPC     C23      CTL2    -0.180000       12.0110           0
     10642 MEMB     86       DOPC     H3R      HAL2     0.900000E-01   1.00800           0
     10643 MEMB     86       DOPC     H3S      HAL2     0.900000E-01   1.00800           0
     10644 MEMB     86       DOPC     C24      CTL2    -0.180000       12.0110           0
     10645 MEMB     86       DOPC     H4R      HAL2     0.900000E-01   1.00800           0
     10646 MEMB     86       DOPC     H4S      HAL2     0.900000E-01   1.00800           0
     10647 MEMB     86       DOPC     C25      CTL2    -0.180000       12.0110           0
     10648 MEMB     86       DOPC     H5R      HAL2     0.900000E-01   1.00800           0
     10649 MEMB     86       DOPC     H5S      HAL2     0.900000E-01   1.00800           0
     10650 MEMB     86       DOPC     C26      CTL2    -0.180000       12.0110           0
     10651 MEMB     86       DOPC     H6R      HAL2     0.900000E-01   1.00800           0
     10652 MEMB     86       DOPC     H6S      HAL2     0.900000E-01   1.00800           0
     10653 MEMB     86       DOPC     C27      CTL2    -0.180000       12.0110           0
     10654 MEMB     86       DOPC     H7R      HAL2     0.900000E-01   1.00800           0
     10655 MEMB     86       DOPC     H7S      HAL2     0.900000E-01   1.00800           0
     10656 MEMB     86       DOPC     C28      CTL2    -0.180000       12.0110           0
     10657 MEMB     86       DOPC     H8R      HAL2     0.900000E-01   1.00800           0
     10658 MEMB     86       DOPC     H8S      HAL2     0.900000E-01   1.00800           0
     10659 MEMB     86       DOPC     C29      CEL1    -0.150000       12.0110           0
     10660 MEMB     86       DOPC     H9R      HEL1     0.150000       1.00800           0
     10661 MEMB     86       DOPC     C210     CEL1    -0.150000       12.0110           0
     10662 MEMB     86       DOPC     H10R     HEL1     0.150000       1.00800           0
     10663 MEMB     86       DOPC     C211     CTL2    -0.180000       12.0110           0
     10664 MEMB     86       DOPC     H11R     HAL2     0.900000E-01   1.00800           0
     10665 MEMB     86       DOPC     H11S     HAL2     0.900000E-01   1.00800           0
     10666 MEMB     86       DOPC     C212     CTL2    -0.180000       12.0110           0
     10667 MEMB     86       DOPC     H12R     HAL2     0.900000E-01   1.00800           0
     10668 MEMB     86       DOPC     H12S     HAL2     0.900000E-01   1.00800           0
     10669 MEMB     86       DOPC     C213     CTL2    -0.180000       12.0110           0
     10670 MEMB     86       DOPC     H13R     HAL2     0.900000E-01   1.00800           0
     10671 MEMB     86       DOPC     H13S     HAL2     0.900000E-01   1.00800           0
     10672 MEMB     86       DOPC     C214     CTL2    -0.180000       12.0110           0
     10673 MEMB     86       DOPC     H14R     HAL2     0.900000E-01   1.00800           0
     10674 MEMB     86       DOPC     H14S     HAL2     0.900000E-01   1.00800           0
     10675 MEMB     86       DOPC     C215     CTL2    -0.180000       12.0110           0
     10676 MEMB     86       DOPC     H15R     HAL2     0.900000E-01   1.00800           0
     10677 MEMB     86       DOPC     H15S     HAL2     0.900000E-01   1.00800           0
     10678 MEMB     86       DOPC     C216     CTL2    -0.180000       12.0110           0
     10679 MEMB     86       DOPC     H16R     HAL2     0.900000E-01   1.00800           0
     10680 MEMB     86       DOPC     H16S     HAL2     0.900000E-01   1.00800           0
     10681 MEMB     86       DOPC     C217     CTL2    -0.180000       12.0110           0
     10682 MEMB     86       DOPC     H17R     HAL2     0.900000E-01   1.00800           0
     10683 MEMB     86       DOPC     H17S     HAL2     0.900000E-01   1.00800           0
     10684 MEMB     86       DOPC     C218     CTL3    -0.270000       12.0110           0
     10685 MEMB     86       DOPC     H18R     HAL3     0.900000E-01   1.00800           0
     10686 MEMB     86       DOPC     H18S     HAL3     0.900000E-01   1.00800           0
     10687 MEMB     86       DOPC     H18T     HAL3     0.900000E-01   1.00800           0
     10688 MEMB     86       DOPC     C33      CTL2    -0.180000       12.0110           0
     10689 MEMB     86       DOPC     H3X      HAL2     0.900000E-01   1.00800           0
     10690 MEMB     86       DOPC     H3Y      HAL2     0.900000E-01   1.00800           0
     10691 MEMB     86       DOPC     C34      CTL2    -0.180000       12.0110           0
     10692 MEMB     86       DOPC     H4X      HAL2     0.900000E-01   1.00800           0
     10693 MEMB     86       DOPC     H4Y      HAL2     0.900000E-01   1.00800           0
     10694 MEMB     86       DOPC     C35      CTL2    -0.180000       12.0110           0
     10695 MEMB     86       DOPC     H5X      HAL2     0.900000E-01   1.00800           0
     10696 MEMB     86       DOPC     H5Y      HAL2     0.900000E-01   1.00800           0
     10697 MEMB     86       DOPC     C36      CTL2    -0.180000       12.0110           0
     10698 MEMB     86       DOPC     H6X      HAL2     0.900000E-01   1.00800           0
     10699 MEMB     86       DOPC     H6Y      HAL2     0.900000E-01   1.00800           0
     10700 MEMB     86       DOPC     C37      CTL2    -0.180000       12.0110           0
     10701 MEMB     86       DOPC     H7X      HAL2     0.900000E-01   1.00800           0
     10702 MEMB     86       DOPC     H7Y      HAL2     0.900000E-01   1.00800           0
     10703 MEMB     86       DOPC     C38      CTL2    -0.180000       12.0110           0
     10704 MEMB     86       DOPC     H8X      HAL2     0.900000E-01   1.00800           0
     10705 MEMB     86       DOPC     H8Y      HAL2     0.900000E-01   1.00800           0
     10706 MEMB     86       DOPC     C39      CEL1    -0.150000       12.0110           0
     10707 MEMB     86       DOPC     H9X      HEL1     0.150000       1.00800           0
     10708 MEMB     86       DOPC     C310     CEL1    -0.150000       12.0110           0
     10709 MEMB     86       DOPC     H10X     HEL1     0.150000       1.00800           0
     10710 MEMB     86       DOPC     C311     CTL2    -0.180000       12.0110           0
     10711 MEMB     86       DOPC     H11X     HAL2     0.900000E-01   1.00800           0
     10712 MEMB     86       DOPC     H11Y     HAL2     0.900000E-01   1.00800           0
     10713 MEMB     86       DOPC     C312     CTL2    -0.180000       12.0110           0
     10714 MEMB     86       DOPC     H12X     HAL2     0.900000E-01   1.00800           0
     10715 MEMB     86       DOPC     H12Y     HAL2     0.900000E-01   1.00800           0
     10716 MEMB     86       DOPC     C313     CTL2    -0.180000       12.0110           0
     10717 MEMB     86       DOPC     H13X     HAL2     0.900000E-01   1.00800           0
     10718 MEMB     86       DOPC     H13Y     HAL2     0.900000E-01   1.00800           0
     10719 MEMB     86       DOPC     C314     CTL2    -0.180000       12.0110           0
     10720 MEMB     86       DOPC     H14X     HAL2     0.900000E-01   1.00800           0
     10721 MEMB     86       DOPC     H14Y     HAL2     0.900000E-01   1.00800           0
     10722 MEMB     86       DOPC     C315     CTL2    -0.180000       12.0110           0
     10723 MEMB     86       DOPC     H15X     HAL2     0.900000E-01   1.00800           0
     10724 MEMB     86       DOPC     H15Y     HAL2     0.900000E-01   1.00800           0
     10725 MEMB     86       DOPC     C316     CTL2    -0.180000       12.0110           0
     10726 MEMB     86       DOPC     H16X     HAL2     0.900000E-01   1.00800           0
     10727 MEMB     86       DOPC     H16Y     HAL2     0.900000E-01   1.00800           0
     10728 MEMB     86       DOPC     C317     CTL2    -0.180000       12.0110           0
     10729 MEMB     86       DOPC     H17X     HAL2     0.900000E-01   1.00800           0
     10730 MEMB     86       DOPC     H17Y     HAL2     0.900000E-01   1.00800           0
     10731 MEMB     86       DOPC     C318     CTL3    -0.270000       12.0110           0
     10732 MEMB     86       DOPC     H18X     HAL3     0.900000E-01   1.00800           0
     10733 MEMB     86       DOPC     H18Y     HAL3     0.900000E-01   1.00800           0
     10734 MEMB     86       DOPC     H18Z     HAL3     0.900000E-01   1.00800           0
     10735 MEMB     87       DOPE     N        NH3L    -0.300000       14.0070           0
     10736 MEMB     87       DOPE     HN1      HCL      0.330000       1.00800           0
     10737 MEMB     87       DOPE     HN2      HCL      0.330000       1.00800           0
     10738 MEMB     87       DOPE     HN3      HCL      0.330000       1.00800           0
     10739 MEMB     87       DOPE     C12      CTL2     0.130000       12.0110           0
     10740 MEMB     87       DOPE     H12A     HAL2     0.900000E-01   1.00800           0
     10741 MEMB     87       DOPE     H12B     HAL2     0.900000E-01   1.00800           0
     10742 MEMB     87       DOPE     C11      CTL2    -0.800000E-01   12.0110           0
     10743 MEMB     87       DOPE     H11A     HAL2     0.900000E-01   1.00800           0
     10744 MEMB     87       DOPE     H11B     HAL2     0.900000E-01   1.00800           0
     10745 MEMB     87       DOPE     P        PL        1.50000       30.9740           0
     10746 MEMB     87       DOPE     O13      O2L     -0.780000       15.9994           0
     10747 MEMB     87       DOPE     O14      O2L     -0.780000       15.9994           0
     10748 MEMB     87       DOPE     O11      OSLP    -0.570000       15.9994           0
     10749 MEMB     87       DOPE     O12      OSLP    -0.570000       15.9994           0
     10750 MEMB     87       DOPE     C1       CTL2    -0.800000E-01   12.0110           0
     10751 MEMB     87       DOPE     HA       HAL2     0.900000E-01   1.00800           0
     10752 MEMB     87       DOPE     HB       HAL2     0.900000E-01   1.00800           0
     10753 MEMB     87       DOPE     C2       CTL1     0.170000       12.0110           0
     10754 MEMB     87       DOPE     HS       HAL1     0.900000E-01   1.00800           0
     10755 MEMB     87       DOPE     O21      OSL     -0.490000       15.9994           0
     10756 MEMB     87       DOPE     C21      CL       0.900000       12.0110           0
     10757 MEMB     87       DOPE     O22      OBL     -0.630000       15.9994           0
     10758 MEMB     87       DOPE     C22      CTL2    -0.220000       12.0110           0
     10759 MEMB     87       DOPE     H2R      HAL2     0.900000E-01   1.00800           0
     10760 MEMB     87       DOPE     H2S      HAL2     0.900000E-01   1.00800           0
     10761 MEMB     87       DOPE     C3       CTL2     0.800000E-01   12.0110           0
     10762 MEMB     87       DOPE     HX       HAL2     0.900000E-01   1.00800           0
     10763 MEMB     87       DOPE     HY       HAL2     0.900000E-01   1.00800           0
     10764 MEMB     87       DOPE     O31      OSL     -0.490000       15.9994           0
     10765 MEMB     87       DOPE     C31      CL       0.900000       12.0110           0
     10766 MEMB     87       DOPE     O32      OBL     -0.630000       15.9994           0
     10767 MEMB     87       DOPE     C32      CTL2    -0.220000       12.0110           0
     10768 MEMB     87       DOPE     H2X      HAL2     0.900000E-01   1.00800           0
     10769 MEMB     87       DOPE     H2Y      HAL2     0.900000E-01   1.00800           0
     10770 MEMB     87       DOPE     C23      CTL2    -0.180000       12.0110           0
     10771 MEMB     87       DOPE     H3R      HAL2     0.900000E-01   1.00800           0
     10772 MEMB     87       DOPE     H3S      HAL2     0.900000E-01   1.00800           0
     10773 MEMB     87       DOPE     C24      CTL2    -0.180000       12.0110           0
     10774 MEMB     87       DOPE     H4R      HAL2     0.900000E-01   1.00800           0
     10775 MEMB     87       DOPE     H4S      HAL2     0.900000E-01   1.00800           0
     10776 MEMB     87       DOPE     C25      CTL2    -0.180000       12.0110           0
     10777 MEMB     87       DOPE     H5R      HAL2     0.900000E-01   1.00800           0
     10778 MEMB     87       DOPE     H5S      HAL2     0.900000E-01   1.00800           0
     10779 MEMB     87       DOPE     C26      CTL2    -0.180000       12.0110           0
     10780 MEMB     87       DOPE     H6R      HAL2     0.900000E-01   1.00800           0
     10781 MEMB     87       DOPE     H6S      HAL2     0.900000E-01   1.00800           0
     10782 MEMB     87       DOPE     C27      CTL2    -0.180000       12.0110           0
     10783 MEMB     87       DOPE     H7R      HAL2     0.900000E-01   1.00800           0
     10784 MEMB     87       DOPE     H7S      HAL2     0.900000E-01   1.00800           0
     10785 MEMB     87       DOPE     C28      CTL2    -0.180000       12.0110           0
     10786 MEMB     87       DOPE     H8R      HAL2     0.900000E-01   1.00800           0
     10787 MEMB     87       DOPE     H8S      HAL2     0.900000E-01   1.00800           0
     10788 MEMB     87       DOPE     C29      CEL1    -0.150000       12.0110           0
     10789 MEMB     87       DOPE     H9R      HEL1     0.150000       1.00800           0
     10790 MEMB     87       DOPE     C210     CEL1    -0.150000       12.0110           0
     10791 MEMB     87       DOPE     H10R     HEL1     0.150000       1.00800           0
     10792 MEMB     87       DOPE     C211     CTL2    -0.180000       12.0110           0
     10793 MEMB     87       DOPE     H11R     HAL2     0.900000E-01   1.00800           0
     10794 MEMB     87       DOPE     H11S     HAL2     0.900000E-01   1.00800           0
     10795 MEMB     87       DOPE     C212     CTL2    -0.180000       12.0110           0
     10796 MEMB     87       DOPE     H12R     HAL2     0.900000E-01   1.00800           0
     10797 MEMB     87       DOPE     H12S     HAL2     0.900000E-01   1.00800           0
     10798 MEMB     87       DOPE     C213     CTL2    -0.180000       12.0110           0
     10799 MEMB     87       DOPE     H13R     HAL2     0.900000E-01   1.00800           0
     10800 MEMB     87       DOPE     H13S     HAL2     0.900000E-01   1.00800           0
     10801 MEMB     87       DOPE     C214     CTL2    -0.180000       12.0110           0
     10802 MEMB     87       DOPE     H14R     HAL2     0.900000E-01   1.00800           0
     10803 MEMB     87       DOPE     H14S     HAL2     0.900000E-01   1.00800           0
     10804 MEMB     87       DOPE     C215     CTL2    -0.180000       12.0110           0
     10805 MEMB     87       DOPE     H15R     HAL2     0.900000E-01   1.00800           0
     10806 MEMB     87       DOPE     H15S     HAL2     0.900000E-01   1.00800           0
     10807 MEMB     87       DOPE     C216     CTL2    -0.180000       12.0110           0
     10808 MEMB     87       DOPE     H16R     HAL2     0.900000E-01   1.00800           0
     10809 MEMB     87       DOPE     H16S     HAL2     0.900000E-01   1.00800           0
     10810 MEMB     87       DOPE     C217     CTL2    -0.180000       12.0110           0
     10811 MEMB     87       DOPE     H17R     HAL2     0.900000E-01   1.00800           0
     10812 MEMB     87       DOPE     H17S     HAL2     0.900000E-01   1.00800           0
     10813 MEMB     87       DOPE     C218     CTL3    -0.270000       12.0110           0
     10814 MEMB     87       DOPE     H18R     HAL3     0.900000E-01   1.00800           0
     10815 MEMB     87       DOPE     H18S     HAL3     0.900000E-01   1.00800           0
     10816 MEMB     87       DOPE     H18T     HAL3     0.900000E-01   1.00800           0
     10817 MEMB     87       DOPE     C33      CTL2    -0.180000       12.0110           0
     10818 MEMB     87       DOPE     H3X      HAL2     0.900000E-01   1.00800           0
     10819 MEMB     87       DOPE     H3Y      HAL2     0.900000E-01   1.00800           0
     10820 MEMB     87       DOPE     C34      CTL2    -0.180000       12.0110           0
     10821 MEMB     87       DOPE     H4X      HAL2     0.900000E-01   1.00800           0
     10822 MEMB     87       DOPE     H4Y      HAL2     0.900000E-01   1.00800           0
     10823 MEMB     87       DOPE     C35      CTL2    -0.180000       12.0110           0
     10824 MEMB     87       DOPE     H5X      HAL2     0.900000E-01   1.00800           0
     10825 MEMB     87       DOPE     H5Y      HAL2     0.900000E-01   1.00800           0
     10826 MEMB     87       DOPE     C36      CTL2    -0.180000       12.0110           0
     10827 MEMB     87       DOPE     H6X      HAL2     0.900000E-01   1.00800           0
     10828 MEMB     87       DOPE     H6Y      HAL2     0.900000E-01   1.00800           0
     10829 MEMB     87       DOPE     C37      CTL2    -0.180000       12.0110           0
     10830 MEMB     87       DOPE     H7X      HAL2     0.900000E-01   1.00800           0
     10831 MEMB     87       DOPE     H7Y      HAL2     0.900000E-01   1.00800           0
     10832 MEMB     87       DOPE     C38      CTL2    -0.180000       12.0110           0
     10833 MEMB     87       DOPE     H8X      HAL2     0.900000E-01   1.00800           0
     10834 MEMB     87       DOPE     H8Y      HAL2     0.900000E-01   1.00800           0
     10835 MEMB     87       DOPE     C39      CEL1    -0.150000       12.0110           0
     10836 MEMB     87       DOPE     H9X      HEL1     0.150000       1.00800           0
     10837 MEMB     87       DOPE     C310     CEL1    -0.150000       12.0110           0
     10838 MEMB     87       DOPE     H10X     HEL1     0.150000       1.00800           0
     10839 MEMB     87       DOPE     C311     CTL2    -0.180000       12.0110           0
     10840 MEMB     87       DOPE     H11X     HAL2     0.900000E-01   1.00800           0
     10841 MEMB     87       DOPE     H11Y     HAL2     0.900000E-01   1.00800           0
     10842 MEMB     87       DOPE     C312     CTL2    -0.180000       12.0110           0
     10843 MEMB     87       DOPE     H12X     HAL2     0.900000E-01   1.00800           0
     10844 MEMB     87       DOPE     H12Y     HAL2     0.900000E-01   1.00800           0
     10845 MEMB     87       DOPE     C313     CTL2    -0.180000       12.0110           0
     10846 MEMB     87       DOPE     H13X     HAL2     0.900000E-01   1.00800           0
     10847 MEMB     87       DOPE     H13Y     HAL2     0.900000E-01   1.00800           0
     10848 MEMB     87       DOPE     C314     CTL2    -0.180000       12.0110           0
     10849 MEMB     87       DOPE     H14X     HAL2     0.900000E-01   1.00800           0
     10850 MEMB     87       DOPE     H14Y     HAL2     0.900000E-01   1.00800           0
     10851 MEMB     87       DOPE     C315     CTL2    -0.180000       12.0110           0
     10852 MEMB     87       DOPE     H15X     HAL2     0.900000E-01   1.00800           0
     10853 MEMB     87       DOPE     H15Y     HAL2     0.900000E-01   1.00800           0
     10854 MEMB     87       DOPE     C316     CTL2    -0.180000       12.0110           0
     10855 MEMB     87       DOPE     H16X     HAL2     0.900000E-01   1.00800           0
     10856 MEMB     87       DOPE     H16Y     HAL2     0.900000E-01   1.00800           0
     10857 MEMB     87       DOPE     C317     CTL2    -0.180000       12.0110           0
     10858 MEMB     87       DOPE     H17X     HAL2     0.900000E-01   1.00800           0
     10859 MEMB     87       DOPE     H17Y     HAL2     0.900000E-01   1.00800           0
     10860 MEMB     87       DOPE     C318     CTL3    -0.270000       12.0110           0
     10861 MEMB     87       DOPE     H18X     HAL3     0.900000E-01   1.00800           0
     10862 MEMB     87       DOPE     H18Y     HAL3     0.900000E-01   1.00800           0
     10863 MEMB     87       DOPE     H18Z     HAL3     0.900000E-01   1.00800           0
     10864 MEMB     88       23SM     N        NTL     -0.600000       14.0070           0
     10865 MEMB     88       23SM     C15      CTL5    -0.350000       12.0110           0
     10866 MEMB     88       23SM     H15A     HL       0.250000       1.00800           0
     10867 MEMB     88       23SM     H15B     HL       0.250000       1.00800           0
     10868 MEMB     88       23SM     H15C     HL       0.250000       1.00800           0
     10869 MEMB     88       23SM     C14      CTL5    -0.350000       12.0110           0
     10870 MEMB     88       23SM     H14A     HL       0.250000       1.00800           0
     10871 MEMB     88       23SM     H14B     HL       0.250000       1.00800           0
     10872 MEMB     88       23SM     H14C     HL       0.250000       1.00800           0
     10873 MEMB     88       23SM     C13      CTL5    -0.350000       12.0110           0
     10874 MEMB     88       23SM     H13A     HL       0.250000       1.00800           0
     10875 MEMB     88       23SM     H13B     HL       0.250000       1.00800           0
     10876 MEMB     88       23SM     H13C     HL       0.250000       1.00800           0
     10877 MEMB     88       23SM     C12      CTL2    -0.100000       12.0110           0
     10878 MEMB     88       23SM     H12A     HL       0.250000       1.00800           0
     10879 MEMB     88       23SM     H12B     HL       0.250000       1.00800           0
     10880 MEMB     88       23SM     C11      CTL2    -0.800000E-01   12.0110           0
     10881 MEMB     88       23SM     H11A     HAL2     0.900000E-01   1.00800           0
     10882 MEMB     88       23SM     H11B     HAL2     0.900000E-01   1.00800           0
     10883 MEMB     88       23SM     P        PL        1.50000       30.9740           0
     10884 MEMB     88       23SM     O13      O2L     -0.780000       15.9994           0
     10885 MEMB     88       23SM     O14      O2L     -0.780000       15.9994           0
     10886 MEMB     88       23SM     O11      OSLP    -0.570000       15.9994           0
     10887 MEMB     88       23SM     O12      OSLP    -0.570000       15.9994           0
     10888 MEMB     88       23SM     C1S      CTL2    -0.800000E-01   12.0110           0
     10889 MEMB     88       23SM     H1S      HAL2     0.900000E-01   1.00800           0
     10890 MEMB     88       23SM     H1T      HAL2     0.900000E-01   1.00800           0
     10891 MEMB     88       23SM     NF       NHL     -0.700000       14.0070           0
     10892 MEMB     88       23SM     HNF      H        0.350000       1.00800           0
     10893 MEMB     88       23SM     C2S      CTL1     0.300000       12.0110           0
     10894 MEMB     88       23SM     H2S      HAL1     0.500000E-01   1.00800           0
     10895 MEMB     88       23SM     C3S      CTO1     0.500000       12.0110           0
     10896 MEMB     88       23SM     H3S      HAL1    -0.110000       1.00800           0
     10897 MEMB     88       23SM     O3       OHL     -0.690000       15.9994           0
     10898 MEMB     88       23SM     HO3      HOL      0.300000       1.00800           0
     10899 MEMB     88       23SM     C4S      CEL3    -0.150000       12.0110           0
     10900 MEMB     88       23SM     H4S      HEL1     0.150000       1.00800           0
     10901 MEMB     88       23SM     C5S      CEL3    -0.150000       12.0110           0
     10902 MEMB     88       23SM     H5S      HEL1     0.150000       1.00800           0
     10903 MEMB     88       23SM     C6S      CTL2    -0.180000       12.0110           0
     10904 MEMB     88       23SM     H6S      HAL2     0.900000E-01   1.00800           0
     10905 MEMB     88       23SM     H6T      HAL2     0.900000E-01   1.00800           0
     10906 MEMB     88       23SM     C7S      CTL2    -0.180000       12.0110           0
     10907 MEMB     88       23SM     H7S      HAL2     0.900000E-01   1.00800           0
     10908 MEMB     88       23SM     H7T      HAL2     0.900000E-01   1.00800           0
     10909 MEMB     88       23SM     C8S      CTL2    -0.180000       12.0110           0
     10910 MEMB     88       23SM     H8S      HAL2     0.900000E-01   1.00800           0
     10911 MEMB     88       23SM     H8T      HAL2     0.900000E-01   1.00800           0
     10912 MEMB     88       23SM     C9S      CTL2    -0.180000       12.0110           0
     10913 MEMB     88       23SM     H9S      HAL2     0.900000E-01   1.00800           0
     10914 MEMB     88       23SM     H9T      HAL2     0.900000E-01   1.00800           0
     10915 MEMB     88       23SM     C10S     CTL2    -0.180000       12.0110           0
     10916 MEMB     88       23SM     H10S     HAL2     0.900000E-01   1.00800           0
     10917 MEMB     88       23SM     H10T     HAL2     0.900000E-01   1.00800           0
     10918 MEMB     88       23SM     C11S     CTL2    -0.180000       12.0110           0
     10919 MEMB     88       23SM     H11S     HAL2     0.900000E-01   1.00800           0
     10920 MEMB     88       23SM     H11T     HAL2     0.900000E-01   1.00800           0
     10921 MEMB     88       23SM     C12S     CTL2    -0.180000       12.0110           0
     10922 MEMB     88       23SM     H12S     HAL2     0.900000E-01   1.00800           0
     10923 MEMB     88       23SM     H12T     HAL2     0.900000E-01   1.00800           0
     10924 MEMB     88       23SM     C13S     CTL2    -0.180000       12.0110           0
     10925 MEMB     88       23SM     H13S     HAL2     0.900000E-01   1.00800           0
     10926 MEMB     88       23SM     H13T     HAL2     0.900000E-01   1.00800           0
     10927 MEMB     88       23SM     C14S     CTL2    -0.180000       12.0110           0
     10928 MEMB     88       23SM     H14S     HAL2     0.900000E-01   1.00800           0
     10929 MEMB     88       23SM     H14T     HAL2     0.900000E-01   1.00800           0
     10930 MEMB     88       23SM     C15S     CTL2    -0.180000       12.0110           0
     10931 MEMB     88       23SM     H15S     HAL2     0.900000E-01   1.00800           0
     10932 MEMB     88       23SM     H15T     HAL2     0.900000E-01   1.00800           0
     10933 MEMB     88       23SM     C16S     CTL2    -0.180000       12.0110           0
     10934 MEMB     88       23SM     H16S     HAL2     0.900000E-01   1.00800           0
     10935 MEMB     88       23SM     H16T     HAL2     0.900000E-01   1.00800           0
     10936 MEMB     88       23SM     C17S     CTL2    -0.180000       12.0110           0
     10937 MEMB     88       23SM     H17S     HAL2     0.900000E-01   1.00800           0
     10938 MEMB     88       23SM     H17T     HAL2     0.900000E-01   1.00800           0
     10939 MEMB     88       23SM     C18S     CTL3    -0.270000       12.0110           0
     10940 MEMB     88       23SM     H18S     HAL3     0.900000E-01   1.00800           0
     10941 MEMB     88       23SM     H18T     HAL3     0.900000E-01   1.00800           0
     10942 MEMB     88       23SM     H18U     HAL3     0.900000E-01   1.00800           0
     10943 MEMB     88       23SM     C1F      C        0.550000       12.0110           0
     10944 MEMB     88       23SM     OF       O       -0.600000       15.9994           0
     10945 MEMB     88       23SM     C2F      CTL2    -0.700000E-01   12.0110           0
     10946 MEMB     88       23SM     H2F      HAL2     0.600000E-01   1.00800           0
     10947 MEMB     88       23SM     H2G      HAL2     0.600000E-01   1.00800           0
     10948 MEMB     88       23SM     C3F      CTL2    -0.180000       12.0110           0
     10949 MEMB     88       23SM     H3F      HAL2     0.900000E-01   1.00800           0
     10950 MEMB     88       23SM     H3G      HAL2     0.900000E-01   1.00800           0
     10951 MEMB     88       23SM     C4F      CTL2    -0.180000       12.0110           0
     10952 MEMB     88       23SM     H4F      HAL2     0.900000E-01   1.00800           0
     10953 MEMB     88       23SM     H4G      HAL2     0.900000E-01   1.00800           0
     10954 MEMB     88       23SM     C5F      CTL2    -0.180000       12.0110           0
     10955 MEMB     88       23SM     H5F      HAL2     0.900000E-01   1.00800           0
     10956 MEMB     88       23SM     H5G      HAL2     0.900000E-01   1.00800           0
     10957 MEMB     88       23SM     C6F      CTL2    -0.180000       12.0110           0
     10958 MEMB     88       23SM     H6F      HAL2     0.900000E-01   1.00800           0
     10959 MEMB     88       23SM     H6G      HAL2     0.900000E-01   1.00800           0
     10960 MEMB     88       23SM     C7F      CTL2    -0.180000       12.0110           0
     10961 MEMB     88       23SM     H7F      HAL2     0.900000E-01   1.00800           0
     10962 MEMB     88       23SM     H7G      HAL2     0.900000E-01   1.00800           0
     10963 MEMB     88       23SM     C8F      CTL2    -0.180000       12.0110           0
     10964 MEMB     88       23SM     H8F      HAL2     0.900000E-01   1.00800           0
     10965 MEMB     88       23SM     H8G      HAL2     0.900000E-01   1.00800           0
     10966 MEMB     88       23SM     C9F      CTL2    -0.180000       12.0110           0
     10967 MEMB     88       23SM     H9F      HAL2     0.900000E-01   1.00800           0
     10968 MEMB     88       23SM     H9G      HAL2     0.900000E-01   1.00800           0
     10969 MEMB     88       23SM     C10F     CTL2    -0.180000       12.0110           0
     10970 MEMB     88       23SM     H10F     HAL2     0.900000E-01   1.00800           0
     10971 MEMB     88       23SM     H10G     HAL2     0.900000E-01   1.00800           0
     10972 MEMB     88       23SM     C11F     CTL2    -0.180000       12.0110           0
     10973 MEMB     88       23SM     H11F     HAL2     0.900000E-01   1.00800           0
     10974 MEMB     88       23SM     H11G     HAL2     0.900000E-01   1.00800           0
     10975 MEMB     88       23SM     C12F     CTL2    -0.180000       12.0110           0
     10976 MEMB     88       23SM     H12F     HAL2     0.900000E-01   1.00800           0
     10977 MEMB     88       23SM     H12G     HAL2     0.900000E-01   1.00800           0
     10978 MEMB     88       23SM     C13F     CTL2    -0.180000       12.0110           0
     10979 MEMB     88       23SM     H13F     HAL2     0.900000E-01   1.00800           0
     10980 MEMB     88       23SM     H13G     HAL2     0.900000E-01   1.00800           0
     10981 MEMB     88       23SM     C14F     CTL2    -0.180000       12.0110           0
     10982 MEMB     88       23SM     H14F     HAL2     0.900000E-01   1.00800           0
     10983 MEMB     88       23SM     H14G     HAL2     0.900000E-01   1.00800           0
     10984 MEMB     88       23SM     C15F     CTL2    -0.180000       12.0110           0
     10985 MEMB     88       23SM     H15F     HAL2     0.900000E-01   1.00800           0
     10986 MEMB     88       23SM     H15G     HAL2     0.900000E-01   1.00800           0
     10987 MEMB     88       23SM     C16F     CTL2    -0.180000       12.0110           0
     10988 MEMB     88       23SM     H16F     HAL2     0.900000E-01   1.00800           0
     10989 MEMB     88       23SM     H16G     HAL2     0.900000E-01   1.00800           0
     10990 MEMB     88       23SM     C17F     CTL2    -0.180000       12.0110           0
     10991 MEMB     88       23SM     H17F     HAL2     0.900000E-01   1.00800           0
     10992 MEMB     88       23SM     H17G     HAL2     0.900000E-01   1.00800           0
     10993 MEMB     88       23SM     C18F     CTL2    -0.180000       12.0110           0
     10994 MEMB     88       23SM     H18F     HAL2     0.900000E-01   1.00800           0
     10995 MEMB     88       23SM     H18G     HAL2     0.900000E-01   1.00800           0
     10996 MEMB     88       23SM     C19F     CTL2    -0.180000       12.0110           0
     10997 MEMB     88       23SM     H19F     HAL2     0.900000E-01   1.00800           0
     10998 MEMB     88       23SM     H19G     HAL2     0.900000E-01   1.00800           0
     10999 MEMB     88       23SM     C20F     CTL2    -0.180000       12.0110           0
     11000 MEMB     88       23SM     H20F     HAL2     0.900000E-01   1.00800           0
     11001 MEMB     88       23SM     H20G     HAL2     0.900000E-01   1.00800           0
     11002 MEMB     88       23SM     C21F     CTL2    -0.180000       12.0110           0
     11003 MEMB     88       23SM     H21F     HAL2     0.900000E-01   1.00800           0
     11004 MEMB     88       23SM     H21G     HAL2     0.900000E-01   1.00800           0
     11005 MEMB     88       23SM     C22F     CTL2    -0.180000       12.0110           0
     11006 MEMB     88       23SM     H22F     HAL2     0.900000E-01   1.00800           0
     11007 MEMB     88       23SM     H22G     HAL2     0.900000E-01   1.00800           0
     11008 MEMB     88       23SM     C23F     CTL3    -0.270000       12.0110           0
     11009 MEMB     88       23SM     H23F     HAL3     0.900000E-01   1.00800           0
     11010 MEMB     88       23SM     H23G     HAL3     0.900000E-01   1.00800           0
     11011 MEMB     88       23SM     H23H     HAL3     0.900000E-01   1.00800           0
     11012 MEMB     89       CHL1     C3       CRL1     0.140000       12.0110           0
     11013 MEMB     89       CHL1     H3       HGA1     0.900000E-01   1.00800           0
     11014 MEMB     89       CHL1     O3       OHL     -0.660000       15.9994           0
     11015 MEMB     89       CHL1     H3'      HOL      0.430000       1.00800           0
     11016 MEMB     89       CHL1     C4       CRL2    -0.180000       12.0110           0
     11017 MEMB     89       CHL1     H4A      HGA2     0.900000E-01   1.00800           0
     11018 MEMB     89       CHL1     H4B      HGA2     0.900000E-01   1.00800           0
     11019 MEMB     89       CHL1     C5       CEL1      0.00000       12.0110           0
     11020 MEMB     89       CHL1     C6       CEL1    -0.150000       12.0110           0
     11021 MEMB     89       CHL1     H6       HEL1     0.150000       1.00800           0
     11022 MEMB     89       CHL1     C7       CRL2    -0.180000       12.0110           0
     11023 MEMB     89       CHL1     H7A      HGA2     0.900000E-01   1.00800           0
     11024 MEMB     89       CHL1     H7B      HGA2     0.900000E-01   1.00800           0
     11025 MEMB     89       CHL1     C8       CRL1    -0.900000E-01   12.0110           0
     11026 MEMB     89       CHL1     H8       HGA1     0.900000E-01   1.00800           0
     11027 MEMB     89       CHL1     C14      CRL1    -0.900000E-01   12.0110           0
     11028 MEMB     89       CHL1     H14      HGA1     0.900000E-01   1.00800           0
     11029 MEMB     89       CHL1     C15      CRL2    -0.180000       12.0110           0
     11030 MEMB     89       CHL1     H15A     HGA2     0.900000E-01   1.00800           0
     11031 MEMB     89       CHL1     H15B     HGA2     0.900000E-01   1.00800           0
     11032 MEMB     89       CHL1     C16      CRL2    -0.180000       12.0110           0
     11033 MEMB     89       CHL1     H16A     HGA2     0.900000E-01   1.00800           0
     11034 MEMB     89       CHL1     H16B     HGA2     0.900000E-01   1.00800           0
     11035 MEMB     89       CHL1     C17      CRL1    -0.900000E-01   12.0110           0
     11036 MEMB     89       CHL1     H17      HGA1     0.900000E-01   1.00800           0
     11037 MEMB     89       CHL1     C13      CRL1      0.00000       12.0110           0
     11038 MEMB     89       CHL1     C18      CTL3    -0.270000       12.0110           0
     11039 MEMB     89       CHL1     H18A     HAL3     0.900000E-01   1.00800           0
     11040 MEMB     89       CHL1     H18B     HAL3     0.900000E-01   1.00800           0
     11041 MEMB     89       CHL1     H18C     HAL3     0.900000E-01   1.00800           0
     11042 MEMB     89       CHL1     C12      CRL2    -0.180000       12.0110           0
     11043 MEMB     89       CHL1     H12A     HGA2     0.900000E-01   1.00800           0
     11044 MEMB     89       CHL1     H12B     HGA2     0.900000E-01   1.00800           0
     11045 MEMB     89       CHL1     C11      CRL2    -0.180000       12.0110           0
     11046 MEMB     89       CHL1     H11A     HGA2     0.900000E-01   1.00800           0
     11047 MEMB     89       CHL1     H11B     HGA2     0.900000E-01   1.00800           0
     11048 MEMB     89       CHL1     C9       CRL1    -0.900000E-01   12.0110           0
     11049 MEMB     89       CHL1     H9       HGA1     0.900000E-01   1.00800           0
     11050 MEMB     89       CHL1     C10      CRL1      0.00000       12.0110           0
     11051 MEMB     89       CHL1     C19      CTL3    -0.270000       12.0110           0
     11052 MEMB     89       CHL1     H19A     HAL3     0.900000E-01   1.00800           0
     11053 MEMB     89       CHL1     H19B     HAL3     0.900000E-01   1.00800           0
     11054 MEMB     89       CHL1     H19C     HAL3     0.900000E-01   1.00800           0
     11055 MEMB     89       CHL1     C1       CRL2    -0.180000       12.0110           0
     11056 MEMB     89       CHL1     H1A      HGA2     0.900000E-01   1.00800           0
     11057 MEMB     89       CHL1     H1B      HGA2     0.900000E-01   1.00800           0
     11058 MEMB     89       CHL1     C2       CRL2    -0.180000       12.0110           0
     11059 MEMB     89       CHL1     H2A      HGA2     0.900000E-01   1.00800           0
     11060 MEMB     89       CHL1     H2B      HGA2     0.900000E-01   1.00800           0
     11061 MEMB     89       CHL1     C20      CTL1    -0.900000E-01   12.0110           0
     11062 MEMB     89       CHL1     H20      HAL1     0.900000E-01   1.00800           0
     11063 MEMB     89       CHL1     C21      CTL3    -0.270000       12.0110           0
     11064 MEMB     89       CHL1     H21A     HAL3     0.900000E-01   1.00800           0
     11065 MEMB     89       CHL1     H21B     HAL3     0.900000E-01   1.00800           0
     11066 MEMB     89       CHL1     H21C     HAL3     0.900000E-01   1.00800           0
     11067 MEMB     89       CHL1     C22      CTL2    -0.180000       12.0110           0
     11068 MEMB     89       CHL1     H22A     HAL2     0.900000E-01   1.00800           0
     11069 MEMB     89       CHL1     H22B     HAL2     0.900000E-01   1.00800           0
     11070 MEMB     89       CHL1     C23      CTL2    -0.180000       12.0110           0
     11071 MEMB     89       CHL1     H23A     HAL2     0.900000E-01   1.00800           0
     11072 MEMB     89       CHL1     H23B     HAL2     0.900000E-01   1.00800           0
     11073 MEMB     89       CHL1     C24      CTL2    -0.180000       12.0110           0
     11074 MEMB     89       CHL1     H24A     HAL2     0.900000E-01   1.00800           0
     11075 MEMB     89       CHL1     H24B     HAL2     0.900000E-01   1.00800           0
     11076 MEMB     89       CHL1     C25      CTL1    -0.900000E-01   12.0110           0
     11077 MEMB     89       CHL1     H25      HAL1     0.900000E-01   1.00800           0
     11078 MEMB     89       CHL1     C26      CTL3    -0.270000       12.0110           0
     11079 MEMB     89       CHL1     H26A     HAL3     0.900000E-01   1.00800           0
     11080 MEMB     89       CHL1     H26B     HAL3     0.900000E-01   1.00800           0
     11081 MEMB     89       CHL1     H26C     HAL3     0.900000E-01   1.00800           0
     11082 MEMB     89       CHL1     C27      CTL3    -0.270000       12.0110           0
     11083 MEMB     89       CHL1     H27A     HAL3     0.900000E-01   1.00800           0
     11084 MEMB     89       CHL1     H27B     HAL3     0.900000E-01   1.00800           0
     11085 MEMB     89       CHL1     H27C     HAL3     0.900000E-01   1.00800           0
     11086 MEMB     90       DOPC     N        NTL     -0.600000       14.0070           0
     11087 MEMB     90       DOPC     C12      CTL2    -0.100000       12.0110           0
     11088 MEMB     90       DOPC     H12A     HL       0.250000       1.00800           0
     11089 MEMB     90       DOPC     H12B     HL       0.250000       1.00800           0
     11090 MEMB     90       DOPC     C13      CTL5    -0.350000       12.0110           0
     11091 MEMB     90       DOPC     H13A     HL       0.250000       1.00800           0
     11092 MEMB     90       DOPC     H13B     HL       0.250000       1.00800           0
     11093 MEMB     90       DOPC     H13C     HL       0.250000       1.00800           0
     11094 MEMB     90       DOPC     C14      CTL5    -0.350000       12.0110           0
     11095 MEMB     90       DOPC     H14A     HL       0.250000       1.00800           0
     11096 MEMB     90       DOPC     H14B     HL       0.250000       1.00800           0
     11097 MEMB     90       DOPC     H14C     HL       0.250000       1.00800           0
     11098 MEMB     90       DOPC     C15      CTL5    -0.350000       12.0110           0
     11099 MEMB     90       DOPC     H15A     HL       0.250000       1.00800           0
     11100 MEMB     90       DOPC     H15B     HL       0.250000       1.00800           0
     11101 MEMB     90       DOPC     H15C     HL       0.250000       1.00800           0
     11102 MEMB     90       DOPC     C11      CTL2    -0.800000E-01   12.0110           0
     11103 MEMB     90       DOPC     H11A     HAL2     0.900000E-01   1.00800           0
     11104 MEMB     90       DOPC     H11B     HAL2     0.900000E-01   1.00800           0
     11105 MEMB     90       DOPC     P        PL        1.50000       30.9740           0
     11106 MEMB     90       DOPC     O13      O2L     -0.780000       15.9994           0
     11107 MEMB     90       DOPC     O14      O2L     -0.780000       15.9994           0
     11108 MEMB     90       DOPC     O12      OSLP    -0.570000       15.9994           0
     11109 MEMB     90       DOPC     O11      OSLP    -0.570000       15.9994           0
     11110 MEMB     90       DOPC     C1       CTL2    -0.800000E-01   12.0110           0
     11111 MEMB     90       DOPC     HA       HAL2     0.900000E-01   1.00800           0
     11112 MEMB     90       DOPC     HB       HAL2     0.900000E-01   1.00800           0
     11113 MEMB     90       DOPC     C2       CTL1     0.170000       12.0110           0
     11114 MEMB     90       DOPC     HS       HAL1     0.900000E-01   1.00800           0
     11115 MEMB     90       DOPC     O21      OSL     -0.490000       15.9994           0
     11116 MEMB     90       DOPC     C21      CL       0.900000       12.0110           0
     11117 MEMB     90       DOPC     O22      OBL     -0.630000       15.9994           0
     11118 MEMB     90       DOPC     C22      CTL2    -0.220000       12.0110           0
     11119 MEMB     90       DOPC     H2R      HAL2     0.900000E-01   1.00800           0
     11120 MEMB     90       DOPC     H2S      HAL2     0.900000E-01   1.00800           0
     11121 MEMB     90       DOPC     C3       CTL2     0.800000E-01   12.0110           0
     11122 MEMB     90       DOPC     HX       HAL2     0.900000E-01   1.00800           0
     11123 MEMB     90       DOPC     HY       HAL2     0.900000E-01   1.00800           0
     11124 MEMB     90       DOPC     O31      OSL     -0.490000       15.9994           0
     11125 MEMB     90       DOPC     C31      CL       0.900000       12.0110           0
     11126 MEMB     90       DOPC     O32      OBL     -0.630000       15.9994           0
     11127 MEMB     90       DOPC     C32      CTL2    -0.220000       12.0110           0
     11128 MEMB     90       DOPC     H2X      HAL2     0.900000E-01   1.00800           0
     11129 MEMB     90       DOPC     H2Y      HAL2     0.900000E-01   1.00800           0
     11130 MEMB     90       DOPC     C23      CTL2    -0.180000       12.0110           0
     11131 MEMB     90       DOPC     H3R      HAL2     0.900000E-01   1.00800           0
     11132 MEMB     90       DOPC     H3S      HAL2     0.900000E-01   1.00800           0
     11133 MEMB     90       DOPC     C24      CTL2    -0.180000       12.0110           0
     11134 MEMB     90       DOPC     H4R      HAL2     0.900000E-01   1.00800           0
     11135 MEMB     90       DOPC     H4S      HAL2     0.900000E-01   1.00800           0
     11136 MEMB     90       DOPC     C25      CTL2    -0.180000       12.0110           0
     11137 MEMB     90       DOPC     H5R      HAL2     0.900000E-01   1.00800           0
     11138 MEMB     90       DOPC     H5S      HAL2     0.900000E-01   1.00800           0
     11139 MEMB     90       DOPC     C26      CTL2    -0.180000       12.0110           0
     11140 MEMB     90       DOPC     H6R      HAL2     0.900000E-01   1.00800           0
     11141 MEMB     90       DOPC     H6S      HAL2     0.900000E-01   1.00800           0
     11142 MEMB     90       DOPC     C27      CTL2    -0.180000       12.0110           0
     11143 MEMB     90       DOPC     H7R      HAL2     0.900000E-01   1.00800           0
     11144 MEMB     90       DOPC     H7S      HAL2     0.900000E-01   1.00800           0
     11145 MEMB     90       DOPC     C28      CTL2    -0.180000       12.0110           0
     11146 MEMB     90       DOPC     H8R      HAL2     0.900000E-01   1.00800           0
     11147 MEMB     90       DOPC     H8S      HAL2     0.900000E-01   1.00800           0
     11148 MEMB     90       DOPC     C29      CEL1    -0.150000       12.0110           0
     11149 MEMB     90       DOPC     H9R      HEL1     0.150000       1.00800           0
     11150 MEMB     90       DOPC     C210     CEL1    -0.150000       12.0110           0
     11151 MEMB     90       DOPC     H10R     HEL1     0.150000       1.00800           0
     11152 MEMB     90       DOPC     C211     CTL2    -0.180000       12.0110           0
     11153 MEMB     90       DOPC     H11R     HAL2     0.900000E-01   1.00800           0
     11154 MEMB     90       DOPC     H11S     HAL2     0.900000E-01   1.00800           0
     11155 MEMB     90       DOPC     C212     CTL2    -0.180000       12.0110           0
     11156 MEMB     90       DOPC     H12R     HAL2     0.900000E-01   1.00800           0
     11157 MEMB     90       DOPC     H12S     HAL2     0.900000E-01   1.00800           0
     11158 MEMB     90       DOPC     C213     CTL2    -0.180000       12.0110           0
     11159 MEMB     90       DOPC     H13R     HAL2     0.900000E-01   1.00800           0
     11160 MEMB     90       DOPC     H13S     HAL2     0.900000E-01   1.00800           0
     11161 MEMB     90       DOPC     C214     CTL2    -0.180000       12.0110           0
     11162 MEMB     90       DOPC     H14R     HAL2     0.900000E-01   1.00800           0
     11163 MEMB     90       DOPC     H14S     HAL2     0.900000E-01   1.00800           0
     11164 MEMB     90       DOPC     C215     CTL2    -0.180000       12.0110           0
     11165 MEMB     90       DOPC     H15R     HAL2     0.900000E-01   1.00800           0
     11166 MEMB     90       DOPC     H15S     HAL2     0.900000E-01   1.00800           0
     11167 MEMB     90       DOPC     C216     CTL2    -0.180000       12.0110           0
     11168 MEMB     90       DOPC     H16R     HAL2     0.900000E-01   1.00800           0
     11169 MEMB     90       DOPC     H16S     HAL2     0.900000E-01   1.00800           0
     11170 MEMB     90       DOPC     C217     CTL2    -0.180000       12.0110           0
     11171 MEMB     90       DOPC     H17R     HAL2     0.900000E-01   1.00800           0
     11172 MEMB     90       DOPC     H17S     HAL2     0.900000E-01   1.00800           0
     11173 MEMB     90       DOPC     C218     CTL3    -0.270000       12.0110           0
     11174 MEMB     90       DOPC     H18R     HAL3     0.900000E-01   1.00800           0
     11175 MEMB     90       DOPC     H18S     HAL3     0.900000E-01   1.00800           0
     11176 MEMB     90       DOPC     H18T     HAL3     0.900000E-01   1.00800           0
     11177 MEMB     90       DOPC     C33      CTL2    -0.180000       12.0110           0
     11178 MEMB     90       DOPC     H3X      HAL2     0.900000E-01   1.00800           0
     11179 MEMB     90       DOPC     H3Y      HAL2     0.900000E-01   1.00800           0
     11180 MEMB     90       DOPC     C34      CTL2    -0.180000       12.0110           0
     11181 MEMB     90       DOPC     H4X      HAL2     0.900000E-01   1.00800           0
     11182 MEMB     90       DOPC     H4Y      HAL2     0.900000E-01   1.00800           0
     11183 MEMB     90       DOPC     C35      CTL2    -0.180000       12.0110           0
     11184 MEMB     90       DOPC     H5X      HAL2     0.900000E-01   1.00800           0
     11185 MEMB     90       DOPC     H5Y      HAL2     0.900000E-01   1.00800           0
     11186 MEMB     90       DOPC     C36      CTL2    -0.180000       12.0110           0
     11187 MEMB     90       DOPC     H6X      HAL2     0.900000E-01   1.00800           0
     11188 MEMB     90       DOPC     H6Y      HAL2     0.900000E-01   1.00800           0
     11189 MEMB     90       DOPC     C37      CTL2    -0.180000       12.0110           0
     11190 MEMB     90       DOPC     H7X      HAL2     0.900000E-01   1.00800           0
     11191 MEMB     90       DOPC     H7Y      HAL2     0.900000E-01   1.00800           0
     11192 MEMB     90       DOPC     C38      CTL2    -0.180000       12.0110           0
     11193 MEMB     90       DOPC     H8X      HAL2     0.900000E-01   1.00800           0
     11194 MEMB     90       DOPC     H8Y      HAL2     0.900000E-01   1.00800           0
     11195 MEMB     90       DOPC     C39      CEL1    -0.150000       12.0110           0
     11196 MEMB     90       DOPC     H9X      HEL1     0.150000       1.00800           0
     11197 MEMB     90       DOPC     C310     CEL1    -0.150000       12.0110           0
     11198 MEMB     90       DOPC     H10X     HEL1     0.150000       1.00800           0
     11199 MEMB     90       DOPC     C311     CTL2    -0.180000       12.0110           0
     11200 MEMB     90       DOPC     H11X     HAL2     0.900000E-01   1.00800           0
     11201 MEMB     90       DOPC     H11Y     HAL2     0.900000E-01   1.00800           0
     11202 MEMB     90       DOPC     C312     CTL2    -0.180000       12.0110           0
     11203 MEMB     90       DOPC     H12X     HAL2     0.900000E-01   1.00800           0
     11204 MEMB     90       DOPC     H12Y     HAL2     0.900000E-01   1.00800           0
     11205 MEMB     90       DOPC     C313     CTL2    -0.180000       12.0110           0
     11206 MEMB     90       DOPC     H13X     HAL2     0.900000E-01   1.00800           0
     11207 MEMB     90       DOPC     H13Y     HAL2     0.900000E-01   1.00800           0
     11208 MEMB     90       DOPC     C314     CTL2    -0.180000       12.0110           0
     11209 MEMB     90       DOPC     H14X     HAL2     0.900000E-01   1.00800           0
     11210 MEMB     90       DOPC     H14Y     HAL2     0.900000E-01   1.00800           0
     11211 MEMB     90       DOPC     C315     CTL2    -0.180000       12.0110           0
     11212 MEMB     90       DOPC     H15X     HAL2     0.900000E-01   1.00800           0
     11213 MEMB     90       DOPC     H15Y     HAL2     0.900000E-01   1.00800           0
     11214 MEMB     90       DOPC     C316     CTL2    -0.180000       12.0110           0
     11215 MEMB     90       DOPC     H16X     HAL2     0.900000E-01   1.00800           0
     11216 MEMB     90       DOPC     H16Y     HAL2     0.900000E-01   1.00800           0
     11217 MEMB     90       DOPC     C317     CTL2    -0.180000       12.0110           0
     11218 MEMB     90       DOPC     H17X     HAL2     0.900000E-01   1.00800           0
     11219 MEMB     90       DOPC     H17Y     HAL2     0.900000E-01   1.00800           0
     11220 MEMB     90       DOPC     C318     CTL3    -0.270000       12.0110           0
     11221 MEMB     90       DOPC     H18X     HAL3     0.900000E-01   1.00800           0
     11222 MEMB     90       DOPC     H18Y     HAL3     0.900000E-01   1.00800           0
     11223 MEMB     90       DOPC     H18Z     HAL3     0.900000E-01   1.00800           0
     11224 MEMB     91       DOPE     N        NH3L    -0.300000       14.0070           0
     11225 MEMB     91       DOPE     HN1      HCL      0.330000       1.00800           0
     11226 MEMB     91       DOPE     HN2      HCL      0.330000       1.00800           0
     11227 MEMB     91       DOPE     HN3      HCL      0.330000       1.00800           0
     11228 MEMB     91       DOPE     C12      CTL2     0.130000       12.0110           0
     11229 MEMB     91       DOPE     H12A     HAL2     0.900000E-01   1.00800           0
     11230 MEMB     91       DOPE     H12B     HAL2     0.900000E-01   1.00800           0
     11231 MEMB     91       DOPE     C11      CTL2    -0.800000E-01   12.0110           0
     11232 MEMB     91       DOPE     H11A     HAL2     0.900000E-01   1.00800           0
     11233 MEMB     91       DOPE     H11B     HAL2     0.900000E-01   1.00800           0
     11234 MEMB     91       DOPE     P        PL        1.50000       30.9740           0
     11235 MEMB     91       DOPE     O13      O2L     -0.780000       15.9994           0
     11236 MEMB     91       DOPE     O14      O2L     -0.780000       15.9994           0
     11237 MEMB     91       DOPE     O11      OSLP    -0.570000       15.9994           0
     11238 MEMB     91       DOPE     O12      OSLP    -0.570000       15.9994           0
     11239 MEMB     91       DOPE     C1       CTL2    -0.800000E-01   12.0110           0
     11240 MEMB     91       DOPE     HA       HAL2     0.900000E-01   1.00800           0
     11241 MEMB     91       DOPE     HB       HAL2     0.900000E-01   1.00800           0
     11242 MEMB     91       DOPE     C2       CTL1     0.170000       12.0110           0
     11243 MEMB     91       DOPE     HS       HAL1     0.900000E-01   1.00800           0
     11244 MEMB     91       DOPE     O21      OSL     -0.490000       15.9994           0
     11245 MEMB     91       DOPE     C21      CL       0.900000       12.0110           0
     11246 MEMB     91       DOPE     O22      OBL     -0.630000       15.9994           0
     11247 MEMB     91       DOPE     C22      CTL2    -0.220000       12.0110           0
     11248 MEMB     91       DOPE     H2R      HAL2     0.900000E-01   1.00800           0
     11249 MEMB     91       DOPE     H2S      HAL2     0.900000E-01   1.00800           0
     11250 MEMB     91       DOPE     C3       CTL2     0.800000E-01   12.0110           0
     11251 MEMB     91       DOPE     HX       HAL2     0.900000E-01   1.00800           0
     11252 MEMB     91       DOPE     HY       HAL2     0.900000E-01   1.00800           0
     11253 MEMB     91       DOPE     O31      OSL     -0.490000       15.9994           0
     11254 MEMB     91       DOPE     C31      CL       0.900000       12.0110           0
     11255 MEMB     91       DOPE     O32      OBL     -0.630000       15.9994           0
     11256 MEMB     91       DOPE     C32      CTL2    -0.220000       12.0110           0
     11257 MEMB     91       DOPE     H2X      HAL2     0.900000E-01   1.00800           0
     11258 MEMB     91       DOPE     H2Y      HAL2     0.900000E-01   1.00800           0
     11259 MEMB     91       DOPE     C23      CTL2    -0.180000       12.0110           0
     11260 MEMB     91       DOPE     H3R      HAL2     0.900000E-01   1.00800           0
     11261 MEMB     91       DOPE     H3S      HAL2     0.900000E-01   1.00800           0
     11262 MEMB     91       DOPE     C24      CTL2    -0.180000       12.0110           0
     11263 MEMB     91       DOPE     H4R      HAL2     0.900000E-01   1.00800           0
     11264 MEMB     91       DOPE     H4S      HAL2     0.900000E-01   1.00800           0
     11265 MEMB     91       DOPE     C25      CTL2    -0.180000       12.0110           0
     11266 MEMB     91       DOPE     H5R      HAL2     0.900000E-01   1.00800           0
     11267 MEMB     91       DOPE     H5S      HAL2     0.900000E-01   1.00800           0
     11268 MEMB     91       DOPE     C26      CTL2    -0.180000       12.0110           0
     11269 MEMB     91       DOPE     H6R      HAL2     0.900000E-01   1.00800           0
     11270 MEMB     91       DOPE     H6S      HAL2     0.900000E-01   1.00800           0
     11271 MEMB     91       DOPE     C27      CTL2    -0.180000       12.0110           0
     11272 MEMB     91       DOPE     H7R      HAL2     0.900000E-01   1.00800           0
     11273 MEMB     91       DOPE     H7S      HAL2     0.900000E-01   1.00800           0
     11274 MEMB     91       DOPE     C28      CTL2    -0.180000       12.0110           0
     11275 MEMB     91       DOPE     H8R      HAL2     0.900000E-01   1.00800           0
     11276 MEMB     91       DOPE     H8S      HAL2     0.900000E-01   1.00800           0
     11277 MEMB     91       DOPE     C29      CEL1    -0.150000       12.0110           0
     11278 MEMB     91       DOPE     H9R      HEL1     0.150000       1.00800           0
     11279 MEMB     91       DOPE     C210     CEL1    -0.150000       12.0110           0
     11280 MEMB     91       DOPE     H10R     HEL1     0.150000       1.00800           0
     11281 MEMB     91       DOPE     C211     CTL2    -0.180000       12.0110           0
     11282 MEMB     91       DOPE     H11R     HAL2     0.900000E-01   1.00800           0
     11283 MEMB     91       DOPE     H11S     HAL2     0.900000E-01   1.00800           0
     11284 MEMB     91       DOPE     C212     CTL2    -0.180000       12.0110           0
     11285 MEMB     91       DOPE     H12R     HAL2     0.900000E-01   1.00800           0
     11286 MEMB     91       DOPE     H12S     HAL2     0.900000E-01   1.00800           0
     11287 MEMB     91       DOPE     C213     CTL2    -0.180000       12.0110           0
     11288 MEMB     91       DOPE     H13R     HAL2     0.900000E-01   1.00800           0
     11289 MEMB     91       DOPE     H13S     HAL2     0.900000E-01   1.00800           0
     11290 MEMB     91       DOPE     C214     CTL2    -0.180000       12.0110           0
     11291 MEMB     91       DOPE     H14R     HAL2     0.900000E-01   1.00800           0
     11292 MEMB     91       DOPE     H14S     HAL2     0.900000E-01   1.00800           0
     11293 MEMB     91       DOPE     C215     CTL2    -0.180000       12.0110           0
     11294 MEMB     91       DOPE     H15R     HAL2     0.900000E-01   1.00800           0
     11295 MEMB     91       DOPE     H15S     HAL2     0.900000E-01   1.00800           0
     11296 MEMB     91       DOPE     C216     CTL2    -0.180000       12.0110           0
     11297 MEMB     91       DOPE     H16R     HAL2     0.900000E-01   1.00800           0
     11298 MEMB     91       DOPE     H16S     HAL2     0.900000E-01   1.00800           0
     11299 MEMB     91       DOPE     C217     CTL2    -0.180000       12.0110           0
     11300 MEMB     91       DOPE     H17R     HAL2     0.900000E-01   1.00800           0
     11301 MEMB     91       DOPE     H17S     HAL2     0.900000E-01   1.00800           0
     11302 MEMB     91       DOPE     C218     CTL3    -0.270000       12.0110           0
     11303 MEMB     91       DOPE     H18R     HAL3     0.900000E-01   1.00800           0
     11304 MEMB     91       DOPE     H18S     HAL3     0.900000E-01   1.00800           0
     11305 MEMB     91       DOPE     H18T     HAL3     0.900000E-01   1.00800           0
     11306 MEMB     91       DOPE     C33      CTL2    -0.180000       12.0110           0
     11307 MEMB     91       DOPE     H3X      HAL2     0.900000E-01   1.00800           0
     11308 MEMB     91       DOPE     H3Y      HAL2     0.900000E-01   1.00800           0
     11309 MEMB     91       DOPE     C34      CTL2    -0.180000       12.0110           0
     11310 MEMB     91       DOPE     H4X      HAL2     0.900000E-01   1.00800           0
     11311 MEMB     91       DOPE     H4Y      HAL2     0.900000E-01   1.00800           0
     11312 MEMB     91       DOPE     C35      CTL2    -0.180000       12.0110           0
     11313 MEMB     91       DOPE     H5X      HAL2     0.900000E-01   1.00800           0
     11314 MEMB     91       DOPE     H5Y      HAL2     0.900000E-01   1.00800           0
     11315 MEMB     91       DOPE     C36      CTL2    -0.180000       12.0110           0
     11316 MEMB     91       DOPE     H6X      HAL2     0.900000E-01   1.00800           0
     11317 MEMB     91       DOPE     H6Y      HAL2     0.900000E-01   1.00800           0
     11318 MEMB     91       DOPE     C37      CTL2    -0.180000       12.0110           0
     11319 MEMB     91       DOPE     H7X      HAL2     0.900000E-01   1.00800           0
     11320 MEMB     91       DOPE     H7Y      HAL2     0.900000E-01   1.00800           0
     11321 MEMB     91       DOPE     C38      CTL2    -0.180000       12.0110           0
     11322 MEMB     91       DOPE     H8X      HAL2     0.900000E-01   1.00800           0
     11323 MEMB     91       DOPE     H8Y      HAL2     0.900000E-01   1.00800           0
     11324 MEMB     91       DOPE     C39      CEL1    -0.150000       12.0110           0
     11325 MEMB     91       DOPE     H9X      HEL1     0.150000       1.00800           0
     11326 MEMB     91       DOPE     C310     CEL1    -0.150000       12.0110           0
     11327 MEMB     91       DOPE     H10X     HEL1     0.150000       1.00800           0
     11328 MEMB     91       DOPE     C311     CTL2    -0.180000       12.0110           0
     11329 MEMB     91       DOPE     H11X     HAL2     0.900000E-01   1.00800           0
     11330 MEMB     91       DOPE     H11Y     HAL2     0.900000E-01   1.00800           0
     11331 MEMB     91       DOPE     C312     CTL2    -0.180000       12.0110           0
     11332 MEMB     91       DOPE     H12X     HAL2     0.900000E-01   1.00800           0
     11333 MEMB     91       DOPE     H12Y     HAL2     0.900000E-01   1.00800           0
     11334 MEMB     91       DOPE     C313     CTL2    -0.180000       12.0110           0
     11335 MEMB     91       DOPE     H13X     HAL2     0.900000E-01   1.00800           0
     11336 MEMB     91       DOPE     H13Y     HAL2     0.900000E-01   1.00800           0
     11337 MEMB     91       DOPE     C314     CTL2    -0.180000       12.0110           0
     11338 MEMB     91       DOPE     H14X     HAL2     0.900000E-01   1.00800           0
     11339 MEMB     91       DOPE     H14Y     HAL2     0.900000E-01   1.00800           0
     11340 MEMB     91       DOPE     C315     CTL2    -0.180000       12.0110           0
     11341 MEMB     91       DOPE     H15X     HAL2     0.900000E-01   1.00800           0
     11342 MEMB     91       DOPE     H15Y     HAL2     0.900000E-01   1.00800           0
     11343 MEMB     91       DOPE     C316     CTL2    -0.180000       12.0110           0
     11344 MEMB     91       DOPE     H16X     HAL2     0.900000E-01   1.00800           0
     11345 MEMB     91       DOPE     H16Y     HAL2     0.900000E-01   1.00800           0
     11346 MEMB     91       DOPE     C317     CTL2    -0.180000       12.0110           0
     11347 MEMB     91       DOPE     H17X     HAL2     0.900000E-01   1.00800           0
     11348 MEMB     91       DOPE     H17Y     HAL2     0.900000E-01   1.00800           0
     11349 MEMB     91       DOPE     C318     CTL3    -0.270000       12.0110           0
     11350 MEMB     91       DOPE     H18X     HAL3     0.900000E-01   1.00800           0
     11351 MEMB     91       DOPE     H18Y     HAL3     0.900000E-01   1.00800           0
     11352 MEMB     91       DOPE     H18Z     HAL3     0.900000E-01   1.00800           0
     11353 MEMB     92       DOPE     N        NH3L    -0.300000       14.0070           0
     11354 MEMB     92       DOPE     HN1      HCL      0.330000       1.00800           0
     11355 MEMB     92       DOPE     HN2      HCL      0.330000       1.00800           0
     11356 MEMB     92       DOPE     HN3      HCL      0.330000       1.00800           0
     11357 MEMB     92       DOPE     C12      CTL2     0.130000       12.0110           0
     11358 MEMB     92       DOPE     H12A     HAL2     0.900000E-01   1.00800           0
     11359 MEMB     92       DOPE     H12B     HAL2     0.900000E-01   1.00800           0
     11360 MEMB     92       DOPE     C11      CTL2    -0.800000E-01   12.0110           0
     11361 MEMB     92       DOPE     H11A     HAL2     0.900000E-01   1.00800           0
     11362 MEMB     92       DOPE     H11B     HAL2     0.900000E-01   1.00800           0
     11363 MEMB     92       DOPE     P        PL        1.50000       30.9740           0
     11364 MEMB     92       DOPE     O13      O2L     -0.780000       15.9994           0
     11365 MEMB     92       DOPE     O14      O2L     -0.780000       15.9994           0
     11366 MEMB     92       DOPE     O11      OSLP    -0.570000       15.9994           0
     11367 MEMB     92       DOPE     O12      OSLP    -0.570000       15.9994           0
     11368 MEMB     92       DOPE     C1       CTL2    -0.800000E-01   12.0110           0
     11369 MEMB     92       DOPE     HA       HAL2     0.900000E-01   1.00800           0
     11370 MEMB     92       DOPE     HB       HAL2     0.900000E-01   1.00800           0
     11371 MEMB     92       DOPE     C2       CTL1     0.170000       12.0110           0
     11372 MEMB     92       DOPE     HS       HAL1     0.900000E-01   1.00800           0
     11373 MEMB     92       DOPE     O21      OSL     -0.490000       15.9994           0
     11374 MEMB     92       DOPE     C21      CL       0.900000       12.0110           0
     11375 MEMB     92       DOPE     O22      OBL     -0.630000       15.9994           0
     11376 MEMB     92       DOPE     C22      CTL2    -0.220000       12.0110           0
     11377 MEMB     92       DOPE     H2R      HAL2     0.900000E-01   1.00800           0
     11378 MEMB     92       DOPE     H2S      HAL2     0.900000E-01   1.00800           0
     11379 MEMB     92       DOPE     C3       CTL2     0.800000E-01   12.0110           0
     11380 MEMB     92       DOPE     HX       HAL2     0.900000E-01   1.00800           0
     11381 MEMB     92       DOPE     HY       HAL2     0.900000E-01   1.00800           0
     11382 MEMB     92       DOPE     O31      OSL     -0.490000       15.9994           0
     11383 MEMB     92       DOPE     C31      CL       0.900000       12.0110           0
     11384 MEMB     92       DOPE     O32      OBL     -0.630000       15.9994           0
     11385 MEMB     92       DOPE     C32      CTL2    -0.220000       12.0110           0
     11386 MEMB     92       DOPE     H2X      HAL2     0.900000E-01   1.00800           0
     11387 MEMB     92       DOPE     H2Y      HAL2     0.900000E-01   1.00800           0
     11388 MEMB     92       DOPE     C23      CTL2    -0.180000       12.0110           0
     11389 MEMB     92       DOPE     H3R      HAL2     0.900000E-01   1.00800           0
     11390 MEMB     92       DOPE     H3S      HAL2     0.900000E-01   1.00800           0
     11391 MEMB     92       DOPE     C24      CTL2    -0.180000       12.0110           0
     11392 MEMB     92       DOPE     H4R      HAL2     0.900000E-01   1.00800           0
     11393 MEMB     92       DOPE     H4S      HAL2     0.900000E-01   1.00800           0
     11394 MEMB     92       DOPE     C25      CTL2    -0.180000       12.0110           0
     11395 MEMB     92       DOPE     H5R      HAL2     0.900000E-01   1.00800           0
     11396 MEMB     92       DOPE     H5S      HAL2     0.900000E-01   1.00800           0
     11397 MEMB     92       DOPE     C26      CTL2    -0.180000       12.0110           0
     11398 MEMB     92       DOPE     H6R      HAL2     0.900000E-01   1.00800           0
     11399 MEMB     92       DOPE     H6S      HAL2     0.900000E-01   1.00800           0
     11400 MEMB     92       DOPE     C27      CTL2    -0.180000       12.0110           0
     11401 MEMB     92       DOPE     H7R      HAL2     0.900000E-01   1.00800           0
     11402 MEMB     92       DOPE     H7S      HAL2     0.900000E-01   1.00800           0
     11403 MEMB     92       DOPE     C28      CTL2    -0.180000       12.0110           0
     11404 MEMB     92       DOPE     H8R      HAL2     0.900000E-01   1.00800           0
     11405 MEMB     92       DOPE     H8S      HAL2     0.900000E-01   1.00800           0
     11406 MEMB     92       DOPE     C29      CEL1    -0.150000       12.0110           0
     11407 MEMB     92       DOPE     H9R      HEL1     0.150000       1.00800           0
     11408 MEMB     92       DOPE     C210     CEL1    -0.150000       12.0110           0
     11409 MEMB     92       DOPE     H10R     HEL1     0.150000       1.00800           0
     11410 MEMB     92       DOPE     C211     CTL2    -0.180000       12.0110           0
     11411 MEMB     92       DOPE     H11R     HAL2     0.900000E-01   1.00800           0
     11412 MEMB     92       DOPE     H11S     HAL2     0.900000E-01   1.00800           0
     11413 MEMB     92       DOPE     C212     CTL2    -0.180000       12.0110           0
     11414 MEMB     92       DOPE     H12R     HAL2     0.900000E-01   1.00800           0
     11415 MEMB     92       DOPE     H12S     HAL2     0.900000E-01   1.00800           0
     11416 MEMB     92       DOPE     C213     CTL2    -0.180000       12.0110           0
     11417 MEMB     92       DOPE     H13R     HAL2     0.900000E-01   1.00800           0
     11418 MEMB     92       DOPE     H13S     HAL2     0.900000E-01   1.00800           0
     11419 MEMB     92       DOPE     C214     CTL2    -0.180000       12.0110           0
     11420 MEMB     92       DOPE     H14R     HAL2     0.900000E-01   1.00800           0
     11421 MEMB     92       DOPE     H14S     HAL2     0.900000E-01   1.00800           0
     11422 MEMB     92       DOPE     C215     CTL2    -0.180000       12.0110           0
     11423 MEMB     92       DOPE     H15R     HAL2     0.900000E-01   1.00800           0
     11424 MEMB     92       DOPE     H15S     HAL2     0.900000E-01   1.00800           0
     11425 MEMB     92       DOPE     C216     CTL2    -0.180000       12.0110           0
     11426 MEMB     92       DOPE     H16R     HAL2     0.900000E-01   1.00800           0
     11427 MEMB     92       DOPE     H16S     HAL2     0.900000E-01   1.00800           0
     11428 MEMB     92       DOPE     C217     CTL2    -0.180000       12.0110           0
     11429 MEMB     92       DOPE     H17R     HAL2     0.900000E-01   1.00800           0
     11430 MEMB     92       DOPE     H17S     HAL2     0.900000E-01   1.00800           0
     11431 MEMB     92       DOPE     C218     CTL3    -0.270000       12.0110           0
     11432 MEMB     92       DOPE     H18R     HAL3     0.900000E-01   1.00800           0
     11433 MEMB     92       DOPE     H18S     HAL3     0.900000E-01   1.00800           0
     11434 MEMB     92       DOPE     H18T     HAL3     0.900000E-01   1.00800           0
     11435 MEMB     92       DOPE     C33      CTL2    -0.180000       12.0110           0
     11436 MEMB     92       DOPE     H3X      HAL2     0.900000E-01   1.00800           0
     11437 MEMB     92       DOPE     H3Y      HAL2     0.900000E-01   1.00800           0
     11438 MEMB     92       DOPE     C34      CTL2    -0.180000       12.0110           0
     11439 MEMB     92       DOPE     H4X      HAL2     0.900000E-01   1.00800           0
     11440 MEMB     92       DOPE     H4Y      HAL2     0.900000E-01   1.00800           0
     11441 MEMB     92       DOPE     C35      CTL2    -0.180000       12.0110           0
     11442 MEMB     92       DOPE     H5X      HAL2     0.900000E-01   1.00800           0
     11443 MEMB     92       DOPE     H5Y      HAL2     0.900000E-01   1.00800           0
     11444 MEMB     92       DOPE     C36      CTL2    -0.180000       12.0110           0
     11445 MEMB     92       DOPE     H6X      HAL2     0.900000E-01   1.00800           0
     11446 MEMB     92       DOPE     H6Y      HAL2     0.900000E-01   1.00800           0
     11447 MEMB     92       DOPE     C37      CTL2    -0.180000       12.0110           0
     11448 MEMB     92       DOPE     H7X      HAL2     0.900000E-01   1.00800           0
     11449 MEMB     92       DOPE     H7Y      HAL2     0.900000E-01   1.00800           0
     11450 MEMB     92       DOPE     C38      CTL2    -0.180000       12.0110           0
     11451 MEMB     92       DOPE     H8X      HAL2     0.900000E-01   1.00800           0
     11452 MEMB     92       DOPE     H8Y      HAL2     0.900000E-01   1.00800           0
     11453 MEMB     92       DOPE     C39      CEL1    -0.150000       12.0110           0
     11454 MEMB     92       DOPE     H9X      HEL1     0.150000       1.00800           0
     11455 MEMB     92       DOPE     C310     CEL1    -0.150000       12.0110           0
     11456 MEMB     92       DOPE     H10X     HEL1     0.150000       1.00800           0
     11457 MEMB     92       DOPE     C311     CTL2    -0.180000       12.0110           0
     11458 MEMB     92       DOPE     H11X     HAL2     0.900000E-01   1.00800           0
     11459 MEMB     92       DOPE     H11Y     HAL2     0.900000E-01   1.00800           0
     11460 MEMB     92       DOPE     C312     CTL2    -0.180000       12.0110           0
     11461 MEMB     92       DOPE     H12X     HAL2     0.900000E-01   1.00800           0
     11462 MEMB     92       DOPE     H12Y     HAL2     0.900000E-01   1.00800           0
     11463 MEMB     92       DOPE     C313     CTL2    -0.180000       12.0110           0
     11464 MEMB     92       DOPE     H13X     HAL2     0.900000E-01   1.00800           0
     11465 MEMB     92       DOPE     H13Y     HAL2     0.900000E-01   1.00800           0
     11466 MEMB     92       DOPE     C314     CTL2    -0.180000       12.0110           0
     11467 MEMB     92       DOPE     H14X     HAL2     0.900000E-01   1.00800           0
     11468 MEMB     92       DOPE     H14Y     HAL2     0.900000E-01   1.00800           0
     11469 MEMB     92       DOPE     C315     CTL2    -0.180000       12.0110           0
     11470 MEMB     92       DOPE     H15X     HAL2     0.900000E-01   1.00800           0
     11471 MEMB     92       DOPE     H15Y     HAL2     0.900000E-01   1.00800           0
     11472 MEMB     92       DOPE     C316     CTL2    -0.180000       12.0110           0
     11473 MEMB     92       DOPE     H16X     HAL2     0.900000E-01   1.00800           0
     11474 MEMB     92       DOPE     H16Y     HAL2     0.900000E-01   1.00800           0
     11475 MEMB     92       DOPE     C317     CTL2    -0.180000       12.0110           0
     11476 MEMB     92       DOPE     H17X     HAL2     0.900000E-01   1.00800           0
     11477 MEMB     92       DOPE     H17Y     HAL2     0.900000E-01   1.00800           0
     11478 MEMB     92       DOPE     C318     CTL3    -0.270000       12.0110           0
     11479 MEMB     92       DOPE     H18X     HAL3     0.900000E-01   1.00800           0
     11480 MEMB     92       DOPE     H18Y     HAL3     0.900000E-01   1.00800           0
     11481 MEMB     92       DOPE     H18Z     HAL3     0.900000E-01   1.00800           0
     11482 MEMB     93       DOPC     N        NTL     -0.600000       14.0070           0
     11483 MEMB     93       DOPC     C12      CTL2    -0.100000       12.0110           0
     11484 MEMB     93       DOPC     H12A     HL       0.250000       1.00800           0
     11485 MEMB     93       DOPC     H12B     HL       0.250000       1.00800           0
     11486 MEMB     93       DOPC     C13      CTL5    -0.350000       12.0110           0
     11487 MEMB     93       DOPC     H13A     HL       0.250000       1.00800           0
     11488 MEMB     93       DOPC     H13B     HL       0.250000       1.00800           0
     11489 MEMB     93       DOPC     H13C     HL       0.250000       1.00800           0
     11490 MEMB     93       DOPC     C14      CTL5    -0.350000       12.0110           0
     11491 MEMB     93       DOPC     H14A     HL       0.250000       1.00800           0
     11492 MEMB     93       DOPC     H14B     HL       0.250000       1.00800           0
     11493 MEMB     93       DOPC     H14C     HL       0.250000       1.00800           0
     11494 MEMB     93       DOPC     C15      CTL5    -0.350000       12.0110           0
     11495 MEMB     93       DOPC     H15A     HL       0.250000       1.00800           0
     11496 MEMB     93       DOPC     H15B     HL       0.250000       1.00800           0
     11497 MEMB     93       DOPC     H15C     HL       0.250000       1.00800           0
     11498 MEMB     93       DOPC     C11      CTL2    -0.800000E-01   12.0110           0
     11499 MEMB     93       DOPC     H11A     HAL2     0.900000E-01   1.00800           0
     11500 MEMB     93       DOPC     H11B     HAL2     0.900000E-01   1.00800           0
     11501 MEMB     93       DOPC     P        PL        1.50000       30.9740           0
     11502 MEMB     93       DOPC     O13      O2L     -0.780000       15.9994           0
     11503 MEMB     93       DOPC     O14      O2L     -0.780000       15.9994           0
     11504 MEMB     93       DOPC     O12      OSLP    -0.570000       15.9994           0
     11505 MEMB     93       DOPC     O11      OSLP    -0.570000       15.9994           0
     11506 MEMB     93       DOPC     C1       CTL2    -0.800000E-01   12.0110           0
     11507 MEMB     93       DOPC     HA       HAL2     0.900000E-01   1.00800           0
     11508 MEMB     93       DOPC     HB       HAL2     0.900000E-01   1.00800           0
     11509 MEMB     93       DOPC     C2       CTL1     0.170000       12.0110           0
     11510 MEMB     93       DOPC     HS       HAL1     0.900000E-01   1.00800           0
     11511 MEMB     93       DOPC     O21      OSL     -0.490000       15.9994           0
     11512 MEMB     93       DOPC     C21      CL       0.900000       12.0110           0
     11513 MEMB     93       DOPC     O22      OBL     -0.630000       15.9994           0
     11514 MEMB     93       DOPC     C22      CTL2    -0.220000       12.0110           0
     11515 MEMB     93       DOPC     H2R      HAL2     0.900000E-01   1.00800           0
     11516 MEMB     93       DOPC     H2S      HAL2     0.900000E-01   1.00800           0
     11517 MEMB     93       DOPC     C3       CTL2     0.800000E-01   12.0110           0
     11518 MEMB     93       DOPC     HX       HAL2     0.900000E-01   1.00800           0
     11519 MEMB     93       DOPC     HY       HAL2     0.900000E-01   1.00800           0
     11520 MEMB     93       DOPC     O31      OSL     -0.490000       15.9994           0
     11521 MEMB     93       DOPC     C31      CL       0.900000       12.0110           0
     11522 MEMB     93       DOPC     O32      OBL     -0.630000       15.9994           0
     11523 MEMB     93       DOPC     C32      CTL2    -0.220000       12.0110           0
     11524 MEMB     93       DOPC     H2X      HAL2     0.900000E-01   1.00800           0
     11525 MEMB     93       DOPC     H2Y      HAL2     0.900000E-01   1.00800           0
     11526 MEMB     93       DOPC     C23      CTL2    -0.180000       12.0110           0
     11527 MEMB     93       DOPC     H3R      HAL2     0.900000E-01   1.00800           0
     11528 MEMB     93       DOPC     H3S      HAL2     0.900000E-01   1.00800           0
     11529 MEMB     93       DOPC     C24      CTL2    -0.180000       12.0110           0
     11530 MEMB     93       DOPC     H4R      HAL2     0.900000E-01   1.00800           0
     11531 MEMB     93       DOPC     H4S      HAL2     0.900000E-01   1.00800           0
     11532 MEMB     93       DOPC     C25      CTL2    -0.180000       12.0110           0
     11533 MEMB     93       DOPC     H5R      HAL2     0.900000E-01   1.00800           0
     11534 MEMB     93       DOPC     H5S      HAL2     0.900000E-01   1.00800           0
     11535 MEMB     93       DOPC     C26      CTL2    -0.180000       12.0110           0
     11536 MEMB     93       DOPC     H6R      HAL2     0.900000E-01   1.00800           0
     11537 MEMB     93       DOPC     H6S      HAL2     0.900000E-01   1.00800           0
     11538 MEMB     93       DOPC     C27      CTL2    -0.180000       12.0110           0
     11539 MEMB     93       DOPC     H7R      HAL2     0.900000E-01   1.00800           0
     11540 MEMB     93       DOPC     H7S      HAL2     0.900000E-01   1.00800           0
     11541 MEMB     93       DOPC     C28      CTL2    -0.180000       12.0110           0
     11542 MEMB     93       DOPC     H8R      HAL2     0.900000E-01   1.00800           0
     11543 MEMB     93       DOPC     H8S      HAL2     0.900000E-01   1.00800           0
     11544 MEMB     93       DOPC     C29      CEL1    -0.150000       12.0110           0
     11545 MEMB     93       DOPC     H9R      HEL1     0.150000       1.00800           0
     11546 MEMB     93       DOPC     C210     CEL1    -0.150000       12.0110           0
     11547 MEMB     93       DOPC     H10R     HEL1     0.150000       1.00800           0
     11548 MEMB     93       DOPC     C211     CTL2    -0.180000       12.0110           0
     11549 MEMB     93       DOPC     H11R     HAL2     0.900000E-01   1.00800           0
     11550 MEMB     93       DOPC     H11S     HAL2     0.900000E-01   1.00800           0
     11551 MEMB     93       DOPC     C212     CTL2    -0.180000       12.0110           0
     11552 MEMB     93       DOPC     H12R     HAL2     0.900000E-01   1.00800           0
     11553 MEMB     93       DOPC     H12S     HAL2     0.900000E-01   1.00800           0
     11554 MEMB     93       DOPC     C213     CTL2    -0.180000       12.0110           0
     11555 MEMB     93       DOPC     H13R     HAL2     0.900000E-01   1.00800           0
     11556 MEMB     93       DOPC     H13S     HAL2     0.900000E-01   1.00800           0
     11557 MEMB     93       DOPC     C214     CTL2    -0.180000       12.0110           0
     11558 MEMB     93       DOPC     H14R     HAL2     0.900000E-01   1.00800           0
     11559 MEMB     93       DOPC     H14S     HAL2     0.900000E-01   1.00800           0
     11560 MEMB     93       DOPC     C215     CTL2    -0.180000       12.0110           0
     11561 MEMB     93       DOPC     H15R     HAL2     0.900000E-01   1.00800           0
     11562 MEMB     93       DOPC     H15S     HAL2     0.900000E-01   1.00800           0
     11563 MEMB     93       DOPC     C216     CTL2    -0.180000       12.0110           0
     11564 MEMB     93       DOPC     H16R     HAL2     0.900000E-01   1.00800           0
     11565 MEMB     93       DOPC     H16S     HAL2     0.900000E-01   1.00800           0
     11566 MEMB     93       DOPC     C217     CTL2    -0.180000       12.0110           0
     11567 MEMB     93       DOPC     H17R     HAL2     0.900000E-01   1.00800           0
     11568 MEMB     93       DOPC     H17S     HAL2     0.900000E-01   1.00800           0
     11569 MEMB     93       DOPC     C218     CTL3    -0.270000       12.0110           0
     11570 MEMB     93       DOPC     H18R     HAL3     0.900000E-01   1.00800           0
     11571 MEMB     93       DOPC     H18S     HAL3     0.900000E-01   1.00800           0
     11572 MEMB     93       DOPC     H18T     HAL3     0.900000E-01   1.00800           0
     11573 MEMB     93       DOPC     C33      CTL2    -0.180000       12.0110           0
     11574 MEMB     93       DOPC     H3X      HAL2     0.900000E-01   1.00800           0
     11575 MEMB     93       DOPC     H3Y      HAL2     0.900000E-01   1.00800           0
     11576 MEMB     93       DOPC     C34      CTL2    -0.180000       12.0110           0
     11577 MEMB     93       DOPC     H4X      HAL2     0.900000E-01   1.00800           0
     11578 MEMB     93       DOPC     H4Y      HAL2     0.900000E-01   1.00800           0
     11579 MEMB     93       DOPC     C35      CTL2    -0.180000       12.0110           0
     11580 MEMB     93       DOPC     H5X      HAL2     0.900000E-01   1.00800           0
     11581 MEMB     93       DOPC     H5Y      HAL2     0.900000E-01   1.00800           0
     11582 MEMB     93       DOPC     C36      CTL2    -0.180000       12.0110           0
     11583 MEMB     93       DOPC     H6X      HAL2     0.900000E-01   1.00800           0
     11584 MEMB     93       DOPC     H6Y      HAL2     0.900000E-01   1.00800           0
     11585 MEMB     93       DOPC     C37      CTL2    -0.180000       12.0110           0
     11586 MEMB     93       DOPC     H7X      HAL2     0.900000E-01   1.00800           0
     11587 MEMB     93       DOPC     H7Y      HAL2     0.900000E-01   1.00800           0
     11588 MEMB     93       DOPC     C38      CTL2    -0.180000       12.0110           0
     11589 MEMB     93       DOPC     H8X      HAL2     0.900000E-01   1.00800           0
     11590 MEMB     93       DOPC     H8Y      HAL2     0.900000E-01   1.00800           0
     11591 MEMB     93       DOPC     C39      CEL1    -0.150000       12.0110           0
     11592 MEMB     93       DOPC     H9X      HEL1     0.150000       1.00800           0
     11593 MEMB     93       DOPC     C310     CEL1    -0.150000       12.0110           0
     11594 MEMB     93       DOPC     H10X     HEL1     0.150000       1.00800           0
     11595 MEMB     93       DOPC     C311     CTL2    -0.180000       12.0110           0
     11596 MEMB     93       DOPC     H11X     HAL2     0.900000E-01   1.00800           0
     11597 MEMB     93       DOPC     H11Y     HAL2     0.900000E-01   1.00800           0
     11598 MEMB     93       DOPC     C312     CTL2    -0.180000       12.0110           0
     11599 MEMB     93       DOPC     H12X     HAL2     0.900000E-01   1.00800           0
     11600 MEMB     93       DOPC     H12Y     HAL2     0.900000E-01   1.00800           0
     11601 MEMB     93       DOPC     C313     CTL2    -0.180000       12.0110           0
     11602 MEMB     93       DOPC     H13X     HAL2     0.900000E-01   1.00800           0
     11603 MEMB     93       DOPC     H13Y     HAL2     0.900000E-01   1.00800           0
     11604 MEMB     93       DOPC     C314     CTL2    -0.180000       12.0110           0
     11605 MEMB     93       DOPC     H14X     HAL2     0.900000E-01   1.00800           0
     11606 MEMB     93       DOPC     H14Y     HAL2     0.900000E-01   1.00800           0
     11607 MEMB     93       DOPC     C315     CTL2    -0.180000       12.0110           0
     11608 MEMB     93       DOPC     H15X     HAL2     0.900000E-01   1.00800           0
     11609 MEMB     93       DOPC     H15Y     HAL2     0.900000E-01   1.00800           0
     11610 MEMB     93       DOPC     C316     CTL2    -0.180000       12.0110           0
     11611 MEMB     93       DOPC     H16X     HAL2     0.900000E-01   1.00800           0
     11612 MEMB     93       DOPC     H16Y     HAL2     0.900000E-01   1.00800           0
     11613 MEMB     93       DOPC     C317     CTL2    -0.180000       12.0110           0
     11614 MEMB     93       DOPC     H17X     HAL2     0.900000E-01   1.00800           0
     11615 MEMB     93       DOPC     H17Y     HAL2     0.900000E-01   1.00800           0
     11616 MEMB     93       DOPC     C318     CTL3    -0.270000       12.0110           0
     11617 MEMB     93       DOPC     H18X     HAL3     0.900000E-01   1.00800           0
     11618 MEMB     93       DOPC     H18Y     HAL3     0.900000E-01   1.00800           0
     11619 MEMB     93       DOPC     H18Z     HAL3     0.900000E-01   1.00800           0
     11620 MEMB     94       CHL1     C3       CRL1     0.140000       12.0110           0
     11621 MEMB     94       CHL1     H3       HGA1     0.900000E-01   1.00800           0
     11622 MEMB     94       CHL1     O3       OHL     -0.660000       15.9994           0
     11623 MEMB     94       CHL1     H3'      HOL      0.430000       1.00800           0
     11624 MEMB     94       CHL1     C4       CRL2    -0.180000       12.0110           0
     11625 MEMB     94       CHL1     H4A      HGA2     0.900000E-01   1.00800           0
     11626 MEMB     94       CHL1     H4B      HGA2     0.900000E-01   1.00800           0
     11627 MEMB     94       CHL1     C5       CEL1      0.00000       12.0110           0
     11628 MEMB     94       CHL1     C6       CEL1    -0.150000       12.0110           0
     11629 MEMB     94       CHL1     H6       HEL1     0.150000       1.00800           0
     11630 MEMB     94       CHL1     C7       CRL2    -0.180000       12.0110           0
     11631 MEMB     94       CHL1     H7A      HGA2     0.900000E-01   1.00800           0
     11632 MEMB     94       CHL1     H7B      HGA2     0.900000E-01   1.00800           0
     11633 MEMB     94       CHL1     C8       CRL1    -0.900000E-01   12.0110           0
     11634 MEMB     94       CHL1     H8       HGA1     0.900000E-01   1.00800           0
     11635 MEMB     94       CHL1     C14      CRL1    -0.900000E-01   12.0110           0
     11636 MEMB     94       CHL1     H14      HGA1     0.900000E-01   1.00800           0
     11637 MEMB     94       CHL1     C15      CRL2    -0.180000       12.0110           0
     11638 MEMB     94       CHL1     H15A     HGA2     0.900000E-01   1.00800           0
     11639 MEMB     94       CHL1     H15B     HGA2     0.900000E-01   1.00800           0
     11640 MEMB     94       CHL1     C16      CRL2    -0.180000       12.0110           0
     11641 MEMB     94       CHL1     H16A     HGA2     0.900000E-01   1.00800           0
     11642 MEMB     94       CHL1     H16B     HGA2     0.900000E-01   1.00800           0
     11643 MEMB     94       CHL1     C17      CRL1    -0.900000E-01   12.0110           0
     11644 MEMB     94       CHL1     H17      HGA1     0.900000E-01   1.00800           0
     11645 MEMB     94       CHL1     C13      CRL1      0.00000       12.0110           0
     11646 MEMB     94       CHL1     C18      CTL3    -0.270000       12.0110           0
     11647 MEMB     94       CHL1     H18A     HAL3     0.900000E-01   1.00800           0
     11648 MEMB     94       CHL1     H18B     HAL3     0.900000E-01   1.00800           0
     11649 MEMB     94       CHL1     H18C     HAL3     0.900000E-01   1.00800           0
     11650 MEMB     94       CHL1     C12      CRL2    -0.180000       12.0110           0
     11651 MEMB     94       CHL1     H12A     HGA2     0.900000E-01   1.00800           0
     11652 MEMB     94       CHL1     H12B     HGA2     0.900000E-01   1.00800           0
     11653 MEMB     94       CHL1     C11      CRL2    -0.180000       12.0110           0
     11654 MEMB     94       CHL1     H11A     HGA2     0.900000E-01   1.00800           0
     11655 MEMB     94       CHL1     H11B     HGA2     0.900000E-01   1.00800           0
     11656 MEMB     94       CHL1     C9       CRL1    -0.900000E-01   12.0110           0
     11657 MEMB     94       CHL1     H9       HGA1     0.900000E-01   1.00800           0
     11658 MEMB     94       CHL1     C10      CRL1      0.00000       12.0110           0
     11659 MEMB     94       CHL1     C19      CTL3    -0.270000       12.0110           0
     11660 MEMB     94       CHL1     H19A     HAL3     0.900000E-01   1.00800           0
     11661 MEMB     94       CHL1     H19B     HAL3     0.900000E-01   1.00800           0
     11662 MEMB     94       CHL1     H19C     HAL3     0.900000E-01   1.00800           0
     11663 MEMB     94       CHL1     C1       CRL2    -0.180000       12.0110           0
     11664 MEMB     94       CHL1     H1A      HGA2     0.900000E-01   1.00800           0
     11665 MEMB     94       CHL1     H1B      HGA2     0.900000E-01   1.00800           0
     11666 MEMB     94       CHL1     C2       CRL2    -0.180000       12.0110           0
     11667 MEMB     94       CHL1     H2A      HGA2     0.900000E-01   1.00800           0
     11668 MEMB     94       CHL1     H2B      HGA2     0.900000E-01   1.00800           0
     11669 MEMB     94       CHL1     C20      CTL1    -0.900000E-01   12.0110           0
     11670 MEMB     94       CHL1     H20      HAL1     0.900000E-01   1.00800           0
     11671 MEMB     94       CHL1     C21      CTL3    -0.270000       12.0110           0
     11672 MEMB     94       CHL1     H21A     HAL3     0.900000E-01   1.00800           0
     11673 MEMB     94       CHL1     H21B     HAL3     0.900000E-01   1.00800           0
     11674 MEMB     94       CHL1     H21C     HAL3     0.900000E-01   1.00800           0
     11675 MEMB     94       CHL1     C22      CTL2    -0.180000       12.0110           0
     11676 MEMB     94       CHL1     H22A     HAL2     0.900000E-01   1.00800           0
     11677 MEMB     94       CHL1     H22B     HAL2     0.900000E-01   1.00800           0
     11678 MEMB     94       CHL1     C23      CTL2    -0.180000       12.0110           0
     11679 MEMB     94       CHL1     H23A     HAL2     0.900000E-01   1.00800           0
     11680 MEMB     94       CHL1     H23B     HAL2     0.900000E-01   1.00800           0
     11681 MEMB     94       CHL1     C24      CTL2    -0.180000       12.0110           0
     11682 MEMB     94       CHL1     H24A     HAL2     0.900000E-01   1.00800           0
     11683 MEMB     94       CHL1     H24B     HAL2     0.900000E-01   1.00800           0
     11684 MEMB     94       CHL1     C25      CTL1    -0.900000E-01   12.0110           0
     11685 MEMB     94       CHL1     H25      HAL1     0.900000E-01   1.00800           0
     11686 MEMB     94       CHL1     C26      CTL3    -0.270000       12.0110           0
     11687 MEMB     94       CHL1     H26A     HAL3     0.900000E-01   1.00800           0
     11688 MEMB     94       CHL1     H26B     HAL3     0.900000E-01   1.00800           0
     11689 MEMB     94       CHL1     H26C     HAL3     0.900000E-01   1.00800           0
     11690 MEMB     94       CHL1     C27      CTL3    -0.270000       12.0110           0
     11691 MEMB     94       CHL1     H27A     HAL3     0.900000E-01   1.00800           0
     11692 MEMB     94       CHL1     H27B     HAL3     0.900000E-01   1.00800           0
     11693 MEMB     94       CHL1     H27C     HAL3     0.900000E-01   1.00800           0
     11694 MEMB     95       23SM     N        NTL     -0.600000       14.0070           0
     11695 MEMB     95       23SM     C15      CTL5    -0.350000       12.0110           0
     11696 MEMB     95       23SM     H15A     HL       0.250000       1.00800           0
     11697 MEMB     95       23SM     H15B     HL       0.250000       1.00800           0
     11698 MEMB     95       23SM     H15C     HL       0.250000       1.00800           0
     11699 MEMB     95       23SM     C14      CTL5    -0.350000       12.0110           0
     11700 MEMB     95       23SM     H14A     HL       0.250000       1.00800           0
     11701 MEMB     95       23SM     H14B     HL       0.250000       1.00800           0
     11702 MEMB     95       23SM     H14C     HL       0.250000       1.00800           0
     11703 MEMB     95       23SM     C13      CTL5    -0.350000       12.0110           0
     11704 MEMB     95       23SM     H13A     HL       0.250000       1.00800           0
     11705 MEMB     95       23SM     H13B     HL       0.250000       1.00800           0
     11706 MEMB     95       23SM     H13C     HL       0.250000       1.00800           0
     11707 MEMB     95       23SM     C12      CTL2    -0.100000       12.0110           0
     11708 MEMB     95       23SM     H12A     HL       0.250000       1.00800           0
     11709 MEMB     95       23SM     H12B     HL       0.250000       1.00800           0
     11710 MEMB     95       23SM     C11      CTL2    -0.800000E-01   12.0110           0
     11711 MEMB     95       23SM     H11A     HAL2     0.900000E-01   1.00800           0
     11712 MEMB     95       23SM     H11B     HAL2     0.900000E-01   1.00800           0
     11713 MEMB     95       23SM     P        PL        1.50000       30.9740           0
     11714 MEMB     95       23SM     O13      O2L     -0.780000       15.9994           0
     11715 MEMB     95       23SM     O14      O2L     -0.780000       15.9994           0
     11716 MEMB     95       23SM     O11      OSLP    -0.570000       15.9994           0
     11717 MEMB     95       23SM     O12      OSLP    -0.570000       15.9994           0
     11718 MEMB     95       23SM     C1S      CTL2    -0.800000E-01   12.0110           0
     11719 MEMB     95       23SM     H1S      HAL2     0.900000E-01   1.00800           0
     11720 MEMB     95       23SM     H1T      HAL2     0.900000E-01   1.00800           0
     11721 MEMB     95       23SM     NF       NHL     -0.700000       14.0070           0
     11722 MEMB     95       23SM     HNF      H        0.350000       1.00800           0
     11723 MEMB     95       23SM     C2S      CTL1     0.300000       12.0110           0
     11724 MEMB     95       23SM     H2S      HAL1     0.500000E-01   1.00800           0
     11725 MEMB     95       23SM     C3S      CTO1     0.500000       12.0110           0
     11726 MEMB     95       23SM     H3S      HAL1    -0.110000       1.00800           0
     11727 MEMB     95       23SM     O3       OHL     -0.690000       15.9994           0
     11728 MEMB     95       23SM     HO3      HOL      0.300000       1.00800           0
     11729 MEMB     95       23SM     C4S      CEL3    -0.150000       12.0110           0
     11730 MEMB     95       23SM     H4S      HEL1     0.150000       1.00800           0
     11731 MEMB     95       23SM     C5S      CEL3    -0.150000       12.0110           0
     11732 MEMB     95       23SM     H5S      HEL1     0.150000       1.00800           0
     11733 MEMB     95       23SM     C6S      CTL2    -0.180000       12.0110           0
     11734 MEMB     95       23SM     H6S      HAL2     0.900000E-01   1.00800           0
     11735 MEMB     95       23SM     H6T      HAL2     0.900000E-01   1.00800           0
     11736 MEMB     95       23SM     C7S      CTL2    -0.180000       12.0110           0
     11737 MEMB     95       23SM     H7S      HAL2     0.900000E-01   1.00800           0
     11738 MEMB     95       23SM     H7T      HAL2     0.900000E-01   1.00800           0
     11739 MEMB     95       23SM     C8S      CTL2    -0.180000       12.0110           0
     11740 MEMB     95       23SM     H8S      HAL2     0.900000E-01   1.00800           0
     11741 MEMB     95       23SM     H8T      HAL2     0.900000E-01   1.00800           0
     11742 MEMB     95       23SM     C9S      CTL2    -0.180000       12.0110           0
     11743 MEMB     95       23SM     H9S      HAL2     0.900000E-01   1.00800           0
     11744 MEMB     95       23SM     H9T      HAL2     0.900000E-01   1.00800           0
     11745 MEMB     95       23SM     C10S     CTL2    -0.180000       12.0110           0
     11746 MEMB     95       23SM     H10S     HAL2     0.900000E-01   1.00800           0
     11747 MEMB     95       23SM     H10T     HAL2     0.900000E-01   1.00800           0
     11748 MEMB     95       23SM     C11S     CTL2    -0.180000       12.0110           0
     11749 MEMB     95       23SM     H11S     HAL2     0.900000E-01   1.00800           0
     11750 MEMB     95       23SM     H11T     HAL2     0.900000E-01   1.00800           0
     11751 MEMB     95       23SM     C12S     CTL2    -0.180000       12.0110           0
     11752 MEMB     95       23SM     H12S     HAL2     0.900000E-01   1.00800           0
     11753 MEMB     95       23SM     H12T     HAL2     0.900000E-01   1.00800           0
     11754 MEMB     95       23SM     C13S     CTL2    -0.180000       12.0110           0
     11755 MEMB     95       23SM     H13S     HAL2     0.900000E-01   1.00800           0
     11756 MEMB     95       23SM     H13T     HAL2     0.900000E-01   1.00800           0
     11757 MEMB     95       23SM     C14S     CTL2    -0.180000       12.0110           0
     11758 MEMB     95       23SM     H14S     HAL2     0.900000E-01   1.00800           0
     11759 MEMB     95       23SM     H14T     HAL2     0.900000E-01   1.00800           0
     11760 MEMB     95       23SM     C15S     CTL2    -0.180000       12.0110           0
     11761 MEMB     95       23SM     H15S     HAL2     0.900000E-01   1.00800           0
     11762 MEMB     95       23SM     H15T     HAL2     0.900000E-01   1.00800           0
     11763 MEMB     95       23SM     C16S     CTL2    -0.180000       12.0110           0
     11764 MEMB     95       23SM     H16S     HAL2     0.900000E-01   1.00800           0
     11765 MEMB     95       23SM     H16T     HAL2     0.900000E-01   1.00800           0
     11766 MEMB     95       23SM     C17S     CTL2    -0.180000       12.0110           0
     11767 MEMB     95       23SM     H17S     HAL2     0.900000E-01   1.00800           0
     11768 MEMB     95       23SM     H17T     HAL2     0.900000E-01   1.00800           0
     11769 MEMB     95       23SM     C18S     CTL3    -0.270000       12.0110           0
     11770 MEMB     95       23SM     H18S     HAL3     0.900000E-01   1.00800           0
     11771 MEMB     95       23SM     H18T     HAL3     0.900000E-01   1.00800           0
     11772 MEMB     95       23SM     H18U     HAL3     0.900000E-01   1.00800           0
     11773 MEMB     95       23SM     C1F      C        0.550000       12.0110           0
     11774 MEMB     95       23SM     OF       O       -0.600000       15.9994           0
     11775 MEMB     95       23SM     C2F      CTL2    -0.700000E-01   12.0110           0
     11776 MEMB     95       23SM     H2F      HAL2     0.600000E-01   1.00800           0
     11777 MEMB     95       23SM     H2G      HAL2     0.600000E-01   1.00800           0
     11778 MEMB     95       23SM     C3F      CTL2    -0.180000       12.0110           0
     11779 MEMB     95       23SM     H3F      HAL2     0.900000E-01   1.00800           0
     11780 MEMB     95       23SM     H3G      HAL2     0.900000E-01   1.00800           0
     11781 MEMB     95       23SM     C4F      CTL2    -0.180000       12.0110           0
     11782 MEMB     95       23SM     H4F      HAL2     0.900000E-01   1.00800           0
     11783 MEMB     95       23SM     H4G      HAL2     0.900000E-01   1.00800           0
     11784 MEMB     95       23SM     C5F      CTL2    -0.180000       12.0110           0
     11785 MEMB     95       23SM     H5F      HAL2     0.900000E-01   1.00800           0
     11786 MEMB     95       23SM     H5G      HAL2     0.900000E-01   1.00800           0
     11787 MEMB     95       23SM     C6F      CTL2    -0.180000       12.0110           0
     11788 MEMB     95       23SM     H6F      HAL2     0.900000E-01   1.00800           0
     11789 MEMB     95       23SM     H6G      HAL2     0.900000E-01   1.00800           0
     11790 MEMB     95       23SM     C7F      CTL2    -0.180000       12.0110           0
     11791 MEMB     95       23SM     H7F      HAL2     0.900000E-01   1.00800           0
     11792 MEMB     95       23SM     H7G      HAL2     0.900000E-01   1.00800           0
     11793 MEMB     95       23SM     C8F      CTL2    -0.180000       12.0110           0
     11794 MEMB     95       23SM     H8F      HAL2     0.900000E-01   1.00800           0
     11795 MEMB     95       23SM     H8G      HAL2     0.900000E-01   1.00800           0
     11796 MEMB     95       23SM     C9F      CTL2    -0.180000       12.0110           0
     11797 MEMB     95       23SM     H9F      HAL2     0.900000E-01   1.00800           0
     11798 MEMB     95       23SM     H9G      HAL2     0.900000E-01   1.00800           0
     11799 MEMB     95       23SM     C10F     CTL2    -0.180000       12.0110           0
     11800 MEMB     95       23SM     H10F     HAL2     0.900000E-01   1.00800           0
     11801 MEMB     95       23SM     H10G     HAL2     0.900000E-01   1.00800           0
     11802 MEMB     95       23SM     C11F     CTL2    -0.180000       12.0110           0
     11803 MEMB     95       23SM     H11F     HAL2     0.900000E-01   1.00800           0
     11804 MEMB     95       23SM     H11G     HAL2     0.900000E-01   1.00800           0
     11805 MEMB     95       23SM     C12F     CTL2    -0.180000       12.0110           0
     11806 MEMB     95       23SM     H12F     HAL2     0.900000E-01   1.00800           0
     11807 MEMB     95       23SM     H12G     HAL2     0.900000E-01   1.00800           0
     11808 MEMB     95       23SM     C13F     CTL2    -0.180000       12.0110           0
     11809 MEMB     95       23SM     H13F     HAL2     0.900000E-01   1.00800           0
     11810 MEMB     95       23SM     H13G     HAL2     0.900000E-01   1.00800           0
     11811 MEMB     95       23SM     C14F     CTL2    -0.180000       12.0110           0
     11812 MEMB     95       23SM     H14F     HAL2     0.900000E-01   1.00800           0
     11813 MEMB     95       23SM     H14G     HAL2     0.900000E-01   1.00800           0
     11814 MEMB     95       23SM     C15F     CTL2    -0.180000       12.0110           0
     11815 MEMB     95       23SM     H15F     HAL2     0.900000E-01   1.00800           0
     11816 MEMB     95       23SM     H15G     HAL2     0.900000E-01   1.00800           0
     11817 MEMB     95       23SM     C16F     CTL2    -0.180000       12.0110           0
     11818 MEMB     95       23SM     H16F     HAL2     0.900000E-01   1.00800           0
     11819 MEMB     95       23SM     H16G     HAL2     0.900000E-01   1.00800           0
     11820 MEMB     95       23SM     C17F     CTL2    -0.180000       12.0110           0
     11821 MEMB     95       23SM     H17F     HAL2     0.900000E-01   1.00800           0
     11822 MEMB     95       23SM     H17G     HAL2     0.900000E-01   1.00800           0
     11823 MEMB     95       23SM     C18F     CTL2    -0.180000       12.0110           0
     11824 MEMB     95       23SM     H18F     HAL2     0.900000E-01   1.00800           0
     11825 MEMB     95       23SM     H18G     HAL2     0.900000E-01   1.00800           0
     11826 MEMB     95       23SM     C19F     CTL2    -0.180000       12.0110           0
     11827 MEMB     95       23SM     H19F     HAL2     0.900000E-01   1.00800           0
     11828 MEMB     95       23SM     H19G     HAL2     0.900000E-01   1.00800           0
     11829 MEMB     95       23SM     C20F     CTL2    -0.180000       12.0110           0
     11830 MEMB     95       23SM     H20F     HAL2     0.900000E-01   1.00800           0
     11831 MEMB     95       23SM     H20G     HAL2     0.900000E-01   1.00800           0
     11832 MEMB     95       23SM     C21F     CTL2    -0.180000       12.0110           0
     11833 MEMB     95       23SM     H21F     HAL2     0.900000E-01   1.00800           0
     11834 MEMB     95       23SM     H21G     HAL2     0.900000E-01   1.00800           0
     11835 MEMB     95       23SM     C22F     CTL2    -0.180000       12.0110           0
     11836 MEMB     95       23SM     H22F     HAL2     0.900000E-01   1.00800           0
     11837 MEMB     95       23SM     H22G     HAL2     0.900000E-01   1.00800           0
     11838 MEMB     95       23SM     C23F     CTL3    -0.270000       12.0110           0
     11839 MEMB     95       23SM     H23F     HAL3     0.900000E-01   1.00800           0
     11840 MEMB     95       23SM     H23G     HAL3     0.900000E-01   1.00800           0
     11841 MEMB     95       23SM     H23H     HAL3     0.900000E-01   1.00800           0
     11842 MEMB     96       DOPE     N        NH3L    -0.300000       14.0070           0
     11843 MEMB     96       DOPE     HN1      HCL      0.330000       1.00800           0
     11844 MEMB     96       DOPE     HN2      HCL      0.330000       1.00800           0
     11845 MEMB     96       DOPE     HN3      HCL      0.330000       1.00800           0
     11846 MEMB     96       DOPE     C12      CTL2     0.130000       12.0110           0
     11847 MEMB     96       DOPE     H12A     HAL2     0.900000E-01   1.00800           0
     11848 MEMB     96       DOPE     H12B     HAL2     0.900000E-01   1.00800           0
     11849 MEMB     96       DOPE     C11      CTL2    -0.800000E-01   12.0110           0
     11850 MEMB     96       DOPE     H11A     HAL2     0.900000E-01   1.00800           0
     11851 MEMB     96       DOPE     H11B     HAL2     0.900000E-01   1.00800           0
     11852 MEMB     96       DOPE     P        PL        1.50000       30.9740           0
     11853 MEMB     96       DOPE     O13      O2L     -0.780000       15.9994           0
     11854 MEMB     96       DOPE     O14      O2L     -0.780000       15.9994           0
     11855 MEMB     96       DOPE     O11      OSLP    -0.570000       15.9994           0
     11856 MEMB     96       DOPE     O12      OSLP    -0.570000       15.9994           0
     11857 MEMB     96       DOPE     C1       CTL2    -0.800000E-01   12.0110           0
     11858 MEMB     96       DOPE     HA       HAL2     0.900000E-01   1.00800           0
     11859 MEMB     96       DOPE     HB       HAL2     0.900000E-01   1.00800           0
     11860 MEMB     96       DOPE     C2       CTL1     0.170000       12.0110           0
     11861 MEMB     96       DOPE     HS       HAL1     0.900000E-01   1.00800           0
     11862 MEMB     96       DOPE     O21      OSL     -0.490000       15.9994           0
     11863 MEMB     96       DOPE     C21      CL       0.900000       12.0110           0
     11864 MEMB     96       DOPE     O22      OBL     -0.630000       15.9994           0
     11865 MEMB     96       DOPE     C22      CTL2    -0.220000       12.0110           0
     11866 MEMB     96       DOPE     H2R      HAL2     0.900000E-01   1.00800           0
     11867 MEMB     96       DOPE     H2S      HAL2     0.900000E-01   1.00800           0
     11868 MEMB     96       DOPE     C3       CTL2     0.800000E-01   12.0110           0
     11869 MEMB     96       DOPE     HX       HAL2     0.900000E-01   1.00800           0
     11870 MEMB     96       DOPE     HY       HAL2     0.900000E-01   1.00800           0
     11871 MEMB     96       DOPE     O31      OSL     -0.490000       15.9994           0
     11872 MEMB     96       DOPE     C31      CL       0.900000       12.0110           0
     11873 MEMB     96       DOPE     O32      OBL     -0.630000       15.9994           0
     11874 MEMB     96       DOPE     C32      CTL2    -0.220000       12.0110           0
     11875 MEMB     96       DOPE     H2X      HAL2     0.900000E-01   1.00800           0
     11876 MEMB     96       DOPE     H2Y      HAL2     0.900000E-01   1.00800           0
     11877 MEMB     96       DOPE     C23      CTL2    -0.180000       12.0110           0
     11878 MEMB     96       DOPE     H3R      HAL2     0.900000E-01   1.00800           0
     11879 MEMB     96       DOPE     H3S      HAL2     0.900000E-01   1.00800           0
     11880 MEMB     96       DOPE     C24      CTL2    -0.180000       12.0110           0
     11881 MEMB     96       DOPE     H4R      HAL2     0.900000E-01   1.00800           0
     11882 MEMB     96       DOPE     H4S      HAL2     0.900000E-01   1.00800           0
     11883 MEMB     96       DOPE     C25      CTL2    -0.180000       12.0110           0
     11884 MEMB     96       DOPE     H5R      HAL2     0.900000E-01   1.00800           0
     11885 MEMB     96       DOPE     H5S      HAL2     0.900000E-01   1.00800           0
     11886 MEMB     96       DOPE     C26      CTL2    -0.180000       12.0110           0
     11887 MEMB     96       DOPE     H6R      HAL2     0.900000E-01   1.00800           0
     11888 MEMB     96       DOPE     H6S      HAL2     0.900000E-01   1.00800           0
     11889 MEMB     96       DOPE     C27      CTL2    -0.180000       12.0110           0
     11890 MEMB     96       DOPE     H7R      HAL2     0.900000E-01   1.00800           0
     11891 MEMB     96       DOPE     H7S      HAL2     0.900000E-01   1.00800           0
     11892 MEMB     96       DOPE     C28      CTL2    -0.180000       12.0110           0
     11893 MEMB     96       DOPE     H8R      HAL2     0.900000E-01   1.00800           0
     11894 MEMB     96       DOPE     H8S      HAL2     0.900000E-01   1.00800           0
     11895 MEMB     96       DOPE     C29      CEL1    -0.150000       12.0110           0
     11896 MEMB     96       DOPE     H9R      HEL1     0.150000       1.00800           0
     11897 MEMB     96       DOPE     C210     CEL1    -0.150000       12.0110           0
     11898 MEMB     96       DOPE     H10R     HEL1     0.150000       1.00800           0
     11899 MEMB     96       DOPE     C211     CTL2    -0.180000       12.0110           0
     11900 MEMB     96       DOPE     H11R     HAL2     0.900000E-01   1.00800           0
     11901 MEMB     96       DOPE     H11S     HAL2     0.900000E-01   1.00800           0
     11902 MEMB     96       DOPE     C212     CTL2    -0.180000       12.0110           0
     11903 MEMB     96       DOPE     H12R     HAL2     0.900000E-01   1.00800           0
     11904 MEMB     96       DOPE     H12S     HAL2     0.900000E-01   1.00800           0
     11905 MEMB     96       DOPE     C213     CTL2    -0.180000       12.0110           0
     11906 MEMB     96       DOPE     H13R     HAL2     0.900000E-01   1.00800           0
     11907 MEMB     96       DOPE     H13S     HAL2     0.900000E-01   1.00800           0
     11908 MEMB     96       DOPE     C214     CTL2    -0.180000       12.0110           0
     11909 MEMB     96       DOPE     H14R     HAL2     0.900000E-01   1.00800           0
     11910 MEMB     96       DOPE     H14S     HAL2     0.900000E-01   1.00800           0
     11911 MEMB     96       DOPE     C215     CTL2    -0.180000       12.0110           0
     11912 MEMB     96       DOPE     H15R     HAL2     0.900000E-01   1.00800           0
     11913 MEMB     96       DOPE     H15S     HAL2     0.900000E-01   1.00800           0
     11914 MEMB     96       DOPE     C216     CTL2    -0.180000       12.0110           0
     11915 MEMB     96       DOPE     H16R     HAL2     0.900000E-01   1.00800           0
     11916 MEMB     96       DOPE     H16S     HAL2     0.900000E-01   1.00800           0
     11917 MEMB     96       DOPE     C217     CTL2    -0.180000       12.0110           0
     11918 MEMB     96       DOPE     H17R     HAL2     0.900000E-01   1.00800           0
     11919 MEMB     96       DOPE     H17S     HAL2     0.900000E-01   1.00800           0
     11920 MEMB     96       DOPE     C218     CTL3    -0.270000       12.0110           0
     11921 MEMB     96       DOPE     H18R     HAL3     0.900000E-01   1.00800           0
     11922 MEMB     96       DOPE     H18S     HAL3     0.900000E-01   1.00800           0
     11923 MEMB     96       DOPE     H18T     HAL3     0.900000E-01   1.00800           0
     11924 MEMB     96       DOPE     C33      CTL2    -0.180000       12.0110           0
     11925 MEMB     96       DOPE     H3X      HAL2     0.900000E-01   1.00800           0
     11926 MEMB     96       DOPE     H3Y      HAL2     0.900000E-01   1.00800           0
     11927 MEMB     96       DOPE     C34      CTL2    -0.180000       12.0110           0
     11928 MEMB     96       DOPE     H4X      HAL2     0.900000E-01   1.00800           0
     11929 MEMB     96       DOPE     H4Y      HAL2     0.900000E-01   1.00800           0
     11930 MEMB     96       DOPE     C35      CTL2    -0.180000       12.0110           0
     11931 MEMB     96       DOPE     H5X      HAL2     0.900000E-01   1.00800           0
     11932 MEMB     96       DOPE     H5Y      HAL2     0.900000E-01   1.00800           0
     11933 MEMB     96       DOPE     C36      CTL2    -0.180000       12.0110           0
     11934 MEMB     96       DOPE     H6X      HAL2     0.900000E-01   1.00800           0
     11935 MEMB     96       DOPE     H6Y      HAL2     0.900000E-01   1.00800           0
     11936 MEMB     96       DOPE     C37      CTL2    -0.180000       12.0110           0
     11937 MEMB     96       DOPE     H7X      HAL2     0.900000E-01   1.00800           0
     11938 MEMB     96       DOPE     H7Y      HAL2     0.900000E-01   1.00800           0
     11939 MEMB     96       DOPE     C38      CTL2    -0.180000       12.0110           0
     11940 MEMB     96       DOPE     H8X      HAL2     0.900000E-01   1.00800           0
     11941 MEMB     96       DOPE     H8Y      HAL2     0.900000E-01   1.00800           0
     11942 MEMB     96       DOPE     C39      CEL1    -0.150000       12.0110           0
     11943 MEMB     96       DOPE     H9X      HEL1     0.150000       1.00800           0
     11944 MEMB     96       DOPE     C310     CEL1    -0.150000       12.0110           0
     11945 MEMB     96       DOPE     H10X     HEL1     0.150000       1.00800           0
     11946 MEMB     96       DOPE     C311     CTL2    -0.180000       12.0110           0
     11947 MEMB     96       DOPE     H11X     HAL2     0.900000E-01   1.00800           0
     11948 MEMB     96       DOPE     H11Y     HAL2     0.900000E-01   1.00800           0
     11949 MEMB     96       DOPE     C312     CTL2    -0.180000       12.0110           0
     11950 MEMB     96       DOPE     H12X     HAL2     0.900000E-01   1.00800           0
     11951 MEMB     96       DOPE     H12Y     HAL2     0.900000E-01   1.00800           0
     11952 MEMB     96       DOPE     C313     CTL2    -0.180000       12.0110           0
     11953 MEMB     96       DOPE     H13X     HAL2     0.900000E-01   1.00800           0
     11954 MEMB     96       DOPE     H13Y     HAL2     0.900000E-01   1.00800           0
     11955 MEMB     96       DOPE     C314     CTL2    -0.180000       12.0110           0
     11956 MEMB     96       DOPE     H14X     HAL2     0.900000E-01   1.00800           0
     11957 MEMB     96       DOPE     H14Y     HAL2     0.900000E-01   1.00800           0
     11958 MEMB     96       DOPE     C315     CTL2    -0.180000       12.0110           0
     11959 MEMB     96       DOPE     H15X     HAL2     0.900000E-01   1.00800           0
     11960 MEMB     96       DOPE     H15Y     HAL2     0.900000E-01   1.00800           0
     11961 MEMB     96       DOPE     C316     CTL2    -0.180000       12.0110           0
     11962 MEMB     96       DOPE     H16X     HAL2     0.900000E-01   1.00800           0
     11963 MEMB     96       DOPE     H16Y     HAL2     0.900000E-01   1.00800           0
     11964 MEMB     96       DOPE     C317     CTL2    -0.180000       12.0110           0
     11965 MEMB     96       DOPE     H17X     HAL2     0.900000E-01   1.00800           0
     11966 MEMB     96       DOPE     H17Y     HAL2     0.900000E-01   1.00800           0
     11967 MEMB     96       DOPE     C318     CTL3    -0.270000       12.0110           0
     11968 MEMB     96       DOPE     H18X     HAL3     0.900000E-01   1.00800           0
     11969 MEMB     96       DOPE     H18Y     HAL3     0.900000E-01   1.00800           0
     11970 MEMB     96       DOPE     H18Z     HAL3     0.900000E-01   1.00800           0
     11971 MEMB     97       DOPE     N        NH3L    -0.300000       14.0070           0
     11972 MEMB     97       DOPE     HN1      HCL      0.330000       1.00800           0
     11973 MEMB     97       DOPE     HN2      HCL      0.330000       1.00800           0
     11974 MEMB     97       DOPE     HN3      HCL      0.330000       1.00800           0
     11975 MEMB     97       DOPE     C12      CTL2     0.130000       12.0110           0
     11976 MEMB     97       DOPE     H12A     HAL2     0.900000E-01   1.00800           0
     11977 MEMB     97       DOPE     H12B     HAL2     0.900000E-01   1.00800           0
     11978 MEMB     97       DOPE     C11      CTL2    -0.800000E-01   12.0110           0
     11979 MEMB     97       DOPE     H11A     HAL2     0.900000E-01   1.00800           0
     11980 MEMB     97       DOPE     H11B     HAL2     0.900000E-01   1.00800           0
     11981 MEMB     97       DOPE     P        PL        1.50000       30.9740           0
     11982 MEMB     97       DOPE     O13      O2L     -0.780000       15.9994           0
     11983 MEMB     97       DOPE     O14      O2L     -0.780000       15.9994           0
     11984 MEMB     97       DOPE     O11      OSLP    -0.570000       15.9994           0
     11985 MEMB     97       DOPE     O12      OSLP    -0.570000       15.9994           0
     11986 MEMB     97       DOPE     C1       CTL2    -0.800000E-01   12.0110           0
     11987 MEMB     97       DOPE     HA       HAL2     0.900000E-01   1.00800           0
     11988 MEMB     97       DOPE     HB       HAL2     0.900000E-01   1.00800           0
     11989 MEMB     97       DOPE     C2       CTL1     0.170000       12.0110           0
     11990 MEMB     97       DOPE     HS       HAL1     0.900000E-01   1.00800           0
     11991 MEMB     97       DOPE     O21      OSL     -0.490000       15.9994           0
     11992 MEMB     97       DOPE     C21      CL       0.900000       12.0110           0
     11993 MEMB     97       DOPE     O22      OBL     -0.630000       15.9994           0
     11994 MEMB     97       DOPE     C22      CTL2    -0.220000       12.0110           0
     11995 MEMB     97       DOPE     H2R      HAL2     0.900000E-01   1.00800           0
     11996 MEMB     97       DOPE     H2S      HAL2     0.900000E-01   1.00800           0
     11997 MEMB     97       DOPE     C3       CTL2     0.800000E-01   12.0110           0
     11998 MEMB     97       DOPE     HX       HAL2     0.900000E-01   1.00800           0
     11999 MEMB     97       DOPE     HY       HAL2     0.900000E-01   1.00800           0
     12000 MEMB     97       DOPE     O31      OSL     -0.490000       15.9994           0
     12001 MEMB     97       DOPE     C31      CL       0.900000       12.0110           0
     12002 MEMB     97       DOPE     O32      OBL     -0.630000       15.9994           0
     12003 MEMB     97       DOPE     C32      CTL2    -0.220000       12.0110           0
     12004 MEMB     97       DOPE     H2X      HAL2     0.900000E-01   1.00800           0
     12005 MEMB     97       DOPE     H2Y      HAL2     0.900000E-01   1.00800           0
     12006 MEMB     97       DOPE     C23      CTL2    -0.180000       12.0110           0
     12007 MEMB     97       DOPE     H3R      HAL2     0.900000E-01   1.00800           0
     12008 MEMB     97       DOPE     H3S      HAL2     0.900000E-01   1.00800           0
     12009 MEMB     97       DOPE     C24      CTL2    -0.180000       12.0110           0
     12010 MEMB     97       DOPE     H4R      HAL2     0.900000E-01   1.00800           0
     12011 MEMB     97       DOPE     H4S      HAL2     0.900000E-01   1.00800           0
     12012 MEMB     97       DOPE     C25      CTL2    -0.180000       12.0110           0
     12013 MEMB     97       DOPE     H5R      HAL2     0.900000E-01   1.00800           0
     12014 MEMB     97       DOPE     H5S      HAL2     0.900000E-01   1.00800           0
     12015 MEMB     97       DOPE     C26      CTL2    -0.180000       12.0110           0
     12016 MEMB     97       DOPE     H6R      HAL2     0.900000E-01   1.00800           0
     12017 MEMB     97       DOPE     H6S      HAL2     0.900000E-01   1.00800           0
     12018 MEMB     97       DOPE     C27      CTL2    -0.180000       12.0110           0
     12019 MEMB     97       DOPE     H7R      HAL2     0.900000E-01   1.00800           0
     12020 MEMB     97       DOPE     H7S      HAL2     0.900000E-01   1.00800           0
     12021 MEMB     97       DOPE     C28      CTL2    -0.180000       12.0110           0
     12022 MEMB     97       DOPE     H8R      HAL2     0.900000E-01   1.00800           0
     12023 MEMB     97       DOPE     H8S      HAL2     0.900000E-01   1.00800           0
     12024 MEMB     97       DOPE     C29      CEL1    -0.150000       12.0110           0
     12025 MEMB     97       DOPE     H9R      HEL1     0.150000       1.00800           0
     12026 MEMB     97       DOPE     C210     CEL1    -0.150000       12.0110           0
     12027 MEMB     97       DOPE     H10R     HEL1     0.150000       1.00800           0
     12028 MEMB     97       DOPE     C211     CTL2    -0.180000       12.0110           0
     12029 MEMB     97       DOPE     H11R     HAL2     0.900000E-01   1.00800           0
     12030 MEMB     97       DOPE     H11S     HAL2     0.900000E-01   1.00800           0
     12031 MEMB     97       DOPE     C212     CTL2    -0.180000       12.0110           0
     12032 MEMB     97       DOPE     H12R     HAL2     0.900000E-01   1.00800           0
     12033 MEMB     97       DOPE     H12S     HAL2     0.900000E-01   1.00800           0
     12034 MEMB     97       DOPE     C213     CTL2    -0.180000       12.0110           0
     12035 MEMB     97       DOPE     H13R     HAL2     0.900000E-01   1.00800           0
     12036 MEMB     97       DOPE     H13S     HAL2     0.900000E-01   1.00800           0
     12037 MEMB     97       DOPE     C214     CTL2    -0.180000       12.0110           0
     12038 MEMB     97       DOPE     H14R     HAL2     0.900000E-01   1.00800           0
     12039 MEMB     97       DOPE     H14S     HAL2     0.900000E-01   1.00800           0
     12040 MEMB     97       DOPE     C215     CTL2    -0.180000       12.0110           0
     12041 MEMB     97       DOPE     H15R     HAL2     0.900000E-01   1.00800           0
     12042 MEMB     97       DOPE     H15S     HAL2     0.900000E-01   1.00800           0
     12043 MEMB     97       DOPE     C216     CTL2    -0.180000       12.0110           0
     12044 MEMB     97       DOPE     H16R     HAL2     0.900000E-01   1.00800           0
     12045 MEMB     97       DOPE     H16S     HAL2     0.900000E-01   1.00800           0
     12046 MEMB     97       DOPE     C217     CTL2    -0.180000       12.0110           0
     12047 MEMB     97       DOPE     H17R     HAL2     0.900000E-01   1.00800           0
     12048 MEMB     97       DOPE     H17S     HAL2     0.900000E-01   1.00800           0
     12049 MEMB     97       DOPE     C218     CTL3    -0.270000       12.0110           0
     12050 MEMB     97       DOPE     H18R     HAL3     0.900000E-01   1.00800           0
     12051 MEMB     97       DOPE     H18S     HAL3     0.900000E-01   1.00800           0
     12052 MEMB     97       DOPE     H18T     HAL3     0.900000E-01   1.00800           0
     12053 MEMB     97       DOPE     C33      CTL2    -0.180000       12.0110           0
     12054 MEMB     97       DOPE     H3X      HAL2     0.900000E-01   1.00800           0
     12055 MEMB     97       DOPE     H3Y      HAL2     0.900000E-01   1.00800           0
     12056 MEMB     97       DOPE     C34      CTL2    -0.180000       12.0110           0
     12057 MEMB     97       DOPE     H4X      HAL2     0.900000E-01   1.00800           0
     12058 MEMB     97       DOPE     H4Y      HAL2     0.900000E-01   1.00800           0
     12059 MEMB     97       DOPE     C35      CTL2    -0.180000       12.0110           0
     12060 MEMB     97       DOPE     H5X      HAL2     0.900000E-01   1.00800           0
     12061 MEMB     97       DOPE     H5Y      HAL2     0.900000E-01   1.00800           0
     12062 MEMB     97       DOPE     C36      CTL2    -0.180000       12.0110           0
     12063 MEMB     97       DOPE     H6X      HAL2     0.900000E-01   1.00800           0
     12064 MEMB     97       DOPE     H6Y      HAL2     0.900000E-01   1.00800           0
     12065 MEMB     97       DOPE     C37      CTL2    -0.180000       12.0110           0
     12066 MEMB     97       DOPE     H7X      HAL2     0.900000E-01   1.00800           0
     12067 MEMB     97       DOPE     H7Y      HAL2     0.900000E-01   1.00800           0
     12068 MEMB     97       DOPE     C38      CTL2    -0.180000       12.0110           0
     12069 MEMB     97       DOPE     H8X      HAL2     0.900000E-01   1.00800           0
     12070 MEMB     97       DOPE     H8Y      HAL2     0.900000E-01   1.00800           0
     12071 MEMB     97       DOPE     C39      CEL1    -0.150000       12.0110           0
     12072 MEMB     97       DOPE     H9X      HEL1     0.150000       1.00800           0
     12073 MEMB     97       DOPE     C310     CEL1    -0.150000       12.0110           0
     12074 MEMB     97       DOPE     H10X     HEL1     0.150000       1.00800           0
     12075 MEMB     97       DOPE     C311     CTL2    -0.180000       12.0110           0
     12076 MEMB     97       DOPE     H11X     HAL2     0.900000E-01   1.00800           0
     12077 MEMB     97       DOPE     H11Y     HAL2     0.900000E-01   1.00800           0
     12078 MEMB     97       DOPE     C312     CTL2    -0.180000       12.0110           0
     12079 MEMB     97       DOPE     H12X     HAL2     0.900000E-01   1.00800           0
     12080 MEMB     97       DOPE     H12Y     HAL2     0.900000E-01   1.00800           0
     12081 MEMB     97       DOPE     C313     CTL2    -0.180000       12.0110           0
     12082 MEMB     97       DOPE     H13X     HAL2     0.900000E-01   1.00800           0
     12083 MEMB     97       DOPE     H13Y     HAL2     0.900000E-01   1.00800           0
     12084 MEMB     97       DOPE     C314     CTL2    -0.180000       12.0110           0
     12085 MEMB     97       DOPE     H14X     HAL2     0.900000E-01   1.00800           0
     12086 MEMB     97       DOPE     H14Y     HAL2     0.900000E-01   1.00800           0
     12087 MEMB     97       DOPE     C315     CTL2    -0.180000       12.0110           0
     12088 MEMB     97       DOPE     H15X     HAL2     0.900000E-01   1.00800           0
     12089 MEMB     97       DOPE     H15Y     HAL2     0.900000E-01   1.00800           0
     12090 MEMB     97       DOPE     C316     CTL2    -0.180000       12.0110           0
     12091 MEMB     97       DOPE     H16X     HAL2     0.900000E-01   1.00800           0
     12092 MEMB     97       DOPE     H16Y     HAL2     0.900000E-01   1.00800           0
     12093 MEMB     97       DOPE     C317     CTL2    -0.180000       12.0110           0
     12094 MEMB     97       DOPE     H17X     HAL2     0.900000E-01   1.00800           0
     12095 MEMB     97       DOPE     H17Y     HAL2     0.900000E-01   1.00800           0
     12096 MEMB     97       DOPE     C318     CTL3    -0.270000       12.0110           0
     12097 MEMB     97       DOPE     H18X     HAL3     0.900000E-01   1.00800           0
     12098 MEMB     97       DOPE     H18Y     HAL3     0.900000E-01   1.00800           0
     12099 MEMB     97       DOPE     H18Z     HAL3     0.900000E-01   1.00800           0
     12100 MEMB     98       23SM     N        NTL     -0.600000       14.0070           0
     12101 MEMB     98       23SM     C15      CTL5    -0.350000       12.0110           0
     12102 MEMB     98       23SM     H15A     HL       0.250000       1.00800           0
     12103 MEMB     98       23SM     H15B     HL       0.250000       1.00800           0
     12104 MEMB     98       23SM     H15C     HL       0.250000       1.00800           0
     12105 MEMB     98       23SM     C14      CTL5    -0.350000       12.0110           0
     12106 MEMB     98       23SM     H14A     HL       0.250000       1.00800           0
     12107 MEMB     98       23SM     H14B     HL       0.250000       1.00800           0
     12108 MEMB     98       23SM     H14C     HL       0.250000       1.00800           0
     12109 MEMB     98       23SM     C13      CTL5    -0.350000       12.0110           0
     12110 MEMB     98       23SM     H13A     HL       0.250000       1.00800           0
     12111 MEMB     98       23SM     H13B     HL       0.250000       1.00800           0
     12112 MEMB     98       23SM     H13C     HL       0.250000       1.00800           0
     12113 MEMB     98       23SM     C12      CTL2    -0.100000       12.0110           0
     12114 MEMB     98       23SM     H12A     HL       0.250000       1.00800           0
     12115 MEMB     98       23SM     H12B     HL       0.250000       1.00800           0
     12116 MEMB     98       23SM     C11      CTL2    -0.800000E-01   12.0110           0
     12117 MEMB     98       23SM     H11A     HAL2     0.900000E-01   1.00800           0
     12118 MEMB     98       23SM     H11B     HAL2     0.900000E-01   1.00800           0
     12119 MEMB     98       23SM     P        PL        1.50000       30.9740           0
     12120 MEMB     98       23SM     O13      O2L     -0.780000       15.9994           0
     12121 MEMB     98       23SM     O14      O2L     -0.780000       15.9994           0
     12122 MEMB     98       23SM     O11      OSLP    -0.570000       15.9994           0
     12123 MEMB     98       23SM     O12      OSLP    -0.570000       15.9994           0
     12124 MEMB     98       23SM     C1S      CTL2    -0.800000E-01   12.0110           0
     12125 MEMB     98       23SM     H1S      HAL2     0.900000E-01   1.00800           0
     12126 MEMB     98       23SM     H1T      HAL2     0.900000E-01   1.00800           0
     12127 MEMB     98       23SM     NF       NHL     -0.700000       14.0070           0
     12128 MEMB     98       23SM     HNF      H        0.350000       1.00800           0
     12129 MEMB     98       23SM     C2S      CTL1     0.300000       12.0110           0
     12130 MEMB     98       23SM     H2S      HAL1     0.500000E-01   1.00800           0
     12131 MEMB     98       23SM     C3S      CTO1     0.500000       12.0110           0
     12132 MEMB     98       23SM     H3S      HAL1    -0.110000       1.00800           0
     12133 MEMB     98       23SM     O3       OHL     -0.690000       15.9994           0
     12134 MEMB     98       23SM     HO3      HOL      0.300000       1.00800           0
     12135 MEMB     98       23SM     C4S      CEL3    -0.150000       12.0110           0
     12136 MEMB     98       23SM     H4S      HEL1     0.150000       1.00800           0
     12137 MEMB     98       23SM     C5S      CEL3    -0.150000       12.0110           0
     12138 MEMB     98       23SM     H5S      HEL1     0.150000       1.00800           0
     12139 MEMB     98       23SM     C6S      CTL2    -0.180000       12.0110           0
     12140 MEMB     98       23SM     H6S      HAL2     0.900000E-01   1.00800           0
     12141 MEMB     98       23SM     H6T      HAL2     0.900000E-01   1.00800           0
     12142 MEMB     98       23SM     C7S      CTL2    -0.180000       12.0110           0
     12143 MEMB     98       23SM     H7S      HAL2     0.900000E-01   1.00800           0
     12144 MEMB     98       23SM     H7T      HAL2     0.900000E-01   1.00800           0
     12145 MEMB     98       23SM     C8S      CTL2    -0.180000       12.0110           0
     12146 MEMB     98       23SM     H8S      HAL2     0.900000E-01   1.00800           0
     12147 MEMB     98       23SM     H8T      HAL2     0.900000E-01   1.00800           0
     12148 MEMB     98       23SM     C9S      CTL2    -0.180000       12.0110           0
     12149 MEMB     98       23SM     H9S      HAL2     0.900000E-01   1.00800           0
     12150 MEMB     98       23SM     H9T      HAL2     0.900000E-01   1.00800           0
     12151 MEMB     98       23SM     C10S     CTL2    -0.180000       12.0110           0
     12152 MEMB     98       23SM     H10S     HAL2     0.900000E-01   1.00800           0
     12153 MEMB     98       23SM     H10T     HAL2     0.900000E-01   1.00800           0
     12154 MEMB     98       23SM     C11S     CTL2    -0.180000       12.0110           0
     12155 MEMB     98       23SM     H11S     HAL2     0.900000E-01   1.00800           0
     12156 MEMB     98       23SM     H11T     HAL2     0.900000E-01   1.00800           0
     12157 MEMB     98       23SM     C12S     CTL2    -0.180000       12.0110           0
     12158 MEMB     98       23SM     H12S     HAL2     0.900000E-01   1.00800           0
     12159 MEMB     98       23SM     H12T     HAL2     0.900000E-01   1.00800           0
     12160 MEMB     98       23SM     C13S     CTL2    -0.180000       12.0110           0
     12161 MEMB     98       23SM     H13S     HAL2     0.900000E-01   1.00800           0
     12162 MEMB     98       23SM     H13T     HAL2     0.900000E-01   1.00800           0
     12163 MEMB     98       23SM     C14S     CTL2    -0.180000       12.0110           0
     12164 MEMB     98       23SM     H14S     HAL2     0.900000E-01   1.00800           0
     12165 MEMB     98       23SM     H14T     HAL2     0.900000E-01   1.00800           0
     12166 MEMB     98       23SM     C15S     CTL2    -0.180000       12.0110           0
     12167 MEMB     98       23SM     H15S     HAL2     0.900000E-01   1.00800           0
     12168 MEMB     98       23SM     H15T     HAL2     0.900000E-01   1.00800           0
     12169 MEMB     98       23SM     C16S     CTL2    -0.180000       12.0110           0
     12170 MEMB     98       23SM     H16S     HAL2     0.900000E-01   1.00800           0
     12171 MEMB     98       23SM     H16T     HAL2     0.900000E-01   1.00800           0
     12172 MEMB     98       23SM     C17S     CTL2    -0.180000       12.0110           0
     12173 MEMB     98       23SM     H17S     HAL2     0.900000E-01   1.00800           0
     12174 MEMB     98       23SM     H17T     HAL2     0.900000E-01   1.00800           0
     12175 MEMB     98       23SM     C18S     CTL3    -0.270000       12.0110           0
     12176 MEMB     98       23SM     H18S     HAL3     0.900000E-01   1.00800           0
     12177 MEMB     98       23SM     H18T     HAL3     0.900000E-01   1.00800           0
     12178 MEMB     98       23SM     H18U     HAL3     0.900000E-01   1.00800           0
     12179 MEMB     98       23SM     C1F      C        0.550000       12.0110           0
     12180 MEMB     98       23SM     OF       O       -0.600000       15.9994           0
     12181 MEMB     98       23SM     C2F      CTL2    -0.700000E-01   12.0110           0
     12182 MEMB     98       23SM     H2F      HAL2     0.600000E-01   1.00800           0
     12183 MEMB     98       23SM     H2G      HAL2     0.600000E-01   1.00800           0
     12184 MEMB     98       23SM     C3F      CTL2    -0.180000       12.0110           0
     12185 MEMB     98       23SM     H3F      HAL2     0.900000E-01   1.00800           0
     12186 MEMB     98       23SM     H3G      HAL2     0.900000E-01   1.00800           0
     12187 MEMB     98       23SM     C4F      CTL2    -0.180000       12.0110           0
     12188 MEMB     98       23SM     H4F      HAL2     0.900000E-01   1.00800           0
     12189 MEMB     98       23SM     H4G      HAL2     0.900000E-01   1.00800           0
     12190 MEMB     98       23SM     C5F      CTL2    -0.180000       12.0110           0
     12191 MEMB     98       23SM     H5F      HAL2     0.900000E-01   1.00800           0
     12192 MEMB     98       23SM     H5G      HAL2     0.900000E-01   1.00800           0
     12193 MEMB     98       23SM     C6F      CTL2    -0.180000       12.0110           0
     12194 MEMB     98       23SM     H6F      HAL2     0.900000E-01   1.00800           0
     12195 MEMB     98       23SM     H6G      HAL2     0.900000E-01   1.00800           0
     12196 MEMB     98       23SM     C7F      CTL2    -0.180000       12.0110           0
     12197 MEMB     98       23SM     H7F      HAL2     0.900000E-01   1.00800           0
     12198 MEMB     98       23SM     H7G      HAL2     0.900000E-01   1.00800           0
     12199 MEMB     98       23SM     C8F      CTL2    -0.180000       12.0110           0
     12200 MEMB     98       23SM     H8F      HAL2     0.900000E-01   1.00800           0
     12201 MEMB     98       23SM     H8G      HAL2     0.900000E-01   1.00800           0
     12202 MEMB     98       23SM     C9F      CTL2    -0.180000       12.0110           0
     12203 MEMB     98       23SM     H9F      HAL2     0.900000E-01   1.00800           0
     12204 MEMB     98       23SM     H9G      HAL2     0.900000E-01   1.00800           0
     12205 MEMB     98       23SM     C10F     CTL2    -0.180000       12.0110           0
     12206 MEMB     98       23SM     H10F     HAL2     0.900000E-01   1.00800           0
     12207 MEMB     98       23SM     H10G     HAL2     0.900000E-01   1.00800           0
     12208 MEMB     98       23SM     C11F     CTL2    -0.180000       12.0110           0
     12209 MEMB     98       23SM     H11F     HAL2     0.900000E-01   1.00800           0
     12210 MEMB     98       23SM     H11G     HAL2     0.900000E-01   1.00800           0
     12211 MEMB     98       23SM     C12F     CTL2    -0.180000       12.0110           0
     12212 MEMB     98       23SM     H12F     HAL2     0.900000E-01   1.00800           0
     12213 MEMB     98       23SM     H12G     HAL2     0.900000E-01   1.00800           0
     12214 MEMB     98       23SM     C13F     CTL2    -0.180000       12.0110           0
     12215 MEMB     98       23SM     H13F     HAL2     0.900000E-01   1.00800           0
     12216 MEMB     98       23SM     H13G     HAL2     0.900000E-01   1.00800           0
     12217 MEMB     98       23SM     C14F     CTL2    -0.180000       12.0110           0
     12218 MEMB     98       23SM     H14F     HAL2     0.900000E-01   1.00800           0
     12219 MEMB     98       23SM     H14G     HAL2     0.900000E-01   1.00800           0
     12220 MEMB     98       23SM     C15F     CTL2    -0.180000       12.0110           0
     12221 MEMB     98       23SM     H15F     HAL2     0.900000E-01   1.00800           0
     12222 MEMB     98       23SM     H15G     HAL2     0.900000E-01   1.00800           0
     12223 MEMB     98       23SM     C16F     CTL2    -0.180000       12.0110           0
     12224 MEMB     98       23SM     H16F     HAL2     0.900000E-01   1.00800           0
     12225 MEMB     98       23SM     H16G     HAL2     0.900000E-01   1.00800           0
     12226 MEMB     98       23SM     C17F     CTL2    -0.180000       12.0110           0
     12227 MEMB     98       23SM     H17F     HAL2     0.900000E-01   1.00800           0
     12228 MEMB     98       23SM     H17G     HAL2     0.900000E-01   1.00800           0
     12229 MEMB     98       23SM     C18F     CTL2    -0.180000       12.0110           0
     12230 MEMB     98       23SM     H18F     HAL2     0.900000E-01   1.00800           0
     12231 MEMB     98       23SM     H18G     HAL2     0.900000E-01   1.00800           0
     12232 MEMB     98       23SM     C19F     CTL2    -0.180000       12.0110           0
     12233 MEMB     98       23SM     H19F     HAL2     0.900000E-01   1.00800           0
     12234 MEMB     98       23SM     H19G     HAL2     0.900000E-01   1.00800           0
     12235 MEMB     98       23SM     C20F     CTL2    -0.180000       12.0110           0
     12236 MEMB     98       23SM     H20F     HAL2     0.900000E-01   1.00800           0
     12237 MEMB     98       23SM     H20G     HAL2     0.900000E-01   1.00800           0
     12238 MEMB     98       23SM     C21F     CTL2    -0.180000       12.0110           0
     12239 MEMB     98       23SM     H21F     HAL2     0.900000E-01   1.00800           0
     12240 MEMB     98       23SM     H21G     HAL2     0.900000E-01   1.00800           0
     12241 MEMB     98       23SM     C22F     CTL2    -0.180000       12.0110           0
     12242 MEMB     98       23SM     H22F     HAL2     0.900000E-01   1.00800           0
     12243 MEMB     98       23SM     H22G     HAL2     0.900000E-01   1.00800           0
     12244 MEMB     98       23SM     C23F     CTL3    -0.270000       12.0110           0
     12245 MEMB     98       23SM     H23F     HAL3     0.900000E-01   1.00800           0
     12246 MEMB     98       23SM     H23G     HAL3     0.900000E-01   1.00800           0
     12247 MEMB     98       23SM     H23H     HAL3     0.900000E-01   1.00800           0
     12248 MEMB     99       DOPE     N        NH3L    -0.300000       14.0070           0
     12249 MEMB     99       DOPE     HN1      HCL      0.330000       1.00800           0
     12250 MEMB     99       DOPE     HN2      HCL      0.330000       1.00800           0
     12251 MEMB     99       DOPE     HN3      HCL      0.330000       1.00800           0
     12252 MEMB     99       DOPE     C12      CTL2     0.130000       12.0110           0
     12253 MEMB     99       DOPE     H12A     HAL2     0.900000E-01   1.00800           0
     12254 MEMB     99       DOPE     H12B     HAL2     0.900000E-01   1.00800           0
     12255 MEMB     99       DOPE     C11      CTL2    -0.800000E-01   12.0110           0
     12256 MEMB     99       DOPE     H11A     HAL2     0.900000E-01   1.00800           0
     12257 MEMB     99       DOPE     H11B     HAL2     0.900000E-01   1.00800           0
     12258 MEMB     99       DOPE     P        PL        1.50000       30.9740           0
     12259 MEMB     99       DOPE     O13      O2L     -0.780000       15.9994           0
     12260 MEMB     99       DOPE     O14      O2L     -0.780000       15.9994           0
     12261 MEMB     99       DOPE     O11      OSLP    -0.570000       15.9994           0
     12262 MEMB     99       DOPE     O12      OSLP    -0.570000       15.9994           0
     12263 MEMB     99       DOPE     C1       CTL2    -0.800000E-01   12.0110           0
     12264 MEMB     99       DOPE     HA       HAL2     0.900000E-01   1.00800           0
     12265 MEMB     99       DOPE     HB       HAL2     0.900000E-01   1.00800           0
     12266 MEMB     99       DOPE     C2       CTL1     0.170000       12.0110           0
     12267 MEMB     99       DOPE     HS       HAL1     0.900000E-01   1.00800           0
     12268 MEMB     99       DOPE     O21      OSL     -0.490000       15.9994           0
     12269 MEMB     99       DOPE     C21      CL       0.900000       12.0110           0
     12270 MEMB     99       DOPE     O22      OBL     -0.630000       15.9994           0
     12271 MEMB     99       DOPE     C22      CTL2    -0.220000       12.0110           0
     12272 MEMB     99       DOPE     H2R      HAL2     0.900000E-01   1.00800           0
     12273 MEMB     99       DOPE     H2S      HAL2     0.900000E-01   1.00800           0
     12274 MEMB     99       DOPE     C3       CTL2     0.800000E-01   12.0110           0
     12275 MEMB     99       DOPE     HX       HAL2     0.900000E-01   1.00800           0
     12276 MEMB     99       DOPE     HY       HAL2     0.900000E-01   1.00800           0
     12277 MEMB     99       DOPE     O31      OSL     -0.490000       15.9994           0
     12278 MEMB     99       DOPE     C31      CL       0.900000       12.0110           0
     12279 MEMB     99       DOPE     O32      OBL     -0.630000       15.9994           0
     12280 MEMB     99       DOPE     C32      CTL2    -0.220000       12.0110           0
     12281 MEMB     99       DOPE     H2X      HAL2     0.900000E-01   1.00800           0
     12282 MEMB     99       DOPE     H2Y      HAL2     0.900000E-01   1.00800           0
     12283 MEMB     99       DOPE     C23      CTL2    -0.180000       12.0110           0
     12284 MEMB     99       DOPE     H3R      HAL2     0.900000E-01   1.00800           0
     12285 MEMB     99       DOPE     H3S      HAL2     0.900000E-01   1.00800           0
     12286 MEMB     99       DOPE     C24      CTL2    -0.180000       12.0110           0
     12287 MEMB     99       DOPE     H4R      HAL2     0.900000E-01   1.00800           0
     12288 MEMB     99       DOPE     H4S      HAL2     0.900000E-01   1.00800           0
     12289 MEMB     99       DOPE     C25      CTL2    -0.180000       12.0110           0
     12290 MEMB     99       DOPE     H5R      HAL2     0.900000E-01   1.00800           0
     12291 MEMB     99       DOPE     H5S      HAL2     0.900000E-01   1.00800           0
     12292 MEMB     99       DOPE     C26      CTL2    -0.180000       12.0110           0
     12293 MEMB     99       DOPE     H6R      HAL2     0.900000E-01   1.00800           0
     12294 MEMB     99       DOPE     H6S      HAL2     0.900000E-01   1.00800           0
     12295 MEMB     99       DOPE     C27      CTL2    -0.180000       12.0110           0
     12296 MEMB     99       DOPE     H7R      HAL2     0.900000E-01   1.00800           0
     12297 MEMB     99       DOPE     H7S      HAL2     0.900000E-01   1.00800           0
     12298 MEMB     99       DOPE     C28      CTL2    -0.180000       12.0110           0
     12299 MEMB     99       DOPE     H8R      HAL2     0.900000E-01   1.00800           0
     12300 MEMB     99       DOPE     H8S      HAL2     0.900000E-01   1.00800           0
     12301 MEMB     99       DOPE     C29      CEL1    -0.150000       12.0110           0
     12302 MEMB     99       DOPE     H9R      HEL1     0.150000       1.00800           0
     12303 MEMB     99       DOPE     C210     CEL1    -0.150000       12.0110           0
     12304 MEMB     99       DOPE     H10R     HEL1     0.150000       1.00800           0
     12305 MEMB     99       DOPE     C211     CTL2    -0.180000       12.0110           0
     12306 MEMB     99       DOPE     H11R     HAL2     0.900000E-01   1.00800           0
     12307 MEMB     99       DOPE     H11S     HAL2     0.900000E-01   1.00800           0
     12308 MEMB     99       DOPE     C212     CTL2    -0.180000       12.0110           0
     12309 MEMB     99       DOPE     H12R     HAL2     0.900000E-01   1.00800           0
     12310 MEMB     99       DOPE     H12S     HAL2     0.900000E-01   1.00800           0
     12311 MEMB     99       DOPE     C213     CTL2    -0.180000       12.0110           0
     12312 MEMB     99       DOPE     H13R     HAL2     0.900000E-01   1.00800           0
     12313 MEMB     99       DOPE     H13S     HAL2     0.900000E-01   1.00800           0
     12314 MEMB     99       DOPE     C214     CTL2    -0.180000       12.0110           0
     12315 MEMB     99       DOPE     H14R     HAL2     0.900000E-01   1.00800           0
     12316 MEMB     99       DOPE     H14S     HAL2     0.900000E-01   1.00800           0
     12317 MEMB     99       DOPE     C215     CTL2    -0.180000       12.0110           0
     12318 MEMB     99       DOPE     H15R     HAL2     0.900000E-01   1.00800           0
     12319 MEMB     99       DOPE     H15S     HAL2     0.900000E-01   1.00800           0
     12320 MEMB     99       DOPE     C216     CTL2    -0.180000       12.0110           0
     12321 MEMB     99       DOPE     H16R     HAL2     0.900000E-01   1.00800           0
     12322 MEMB     99       DOPE     H16S     HAL2     0.900000E-01   1.00800           0
     12323 MEMB     99       DOPE     C217     CTL2    -0.180000       12.0110           0
     12324 MEMB     99       DOPE     H17R     HAL2     0.900000E-01   1.00800           0
     12325 MEMB     99       DOPE     H17S     HAL2     0.900000E-01   1.00800           0
     12326 MEMB     99       DOPE     C218     CTL3    -0.270000       12.0110           0
     12327 MEMB     99       DOPE     H18R     HAL3     0.900000E-01   1.00800           0
     12328 MEMB     99       DOPE     H18S     HAL3     0.900000E-01   1.00800           0
     12329 MEMB     99       DOPE     H18T     HAL3     0.900000E-01   1.00800           0
     12330 MEMB     99       DOPE     C33      CTL2    -0.180000       12.0110           0
     12331 MEMB     99       DOPE     H3X      HAL2     0.900000E-01   1.00800           0
     12332 MEMB     99       DOPE     H3Y      HAL2     0.900000E-01   1.00800           0
     12333 MEMB     99       DOPE     C34      CTL2    -0.180000       12.0110           0
     12334 MEMB     99       DOPE     H4X      HAL2     0.900000E-01   1.00800           0
     12335 MEMB     99       DOPE     H4Y      HAL2     0.900000E-01   1.00800           0
     12336 MEMB     99       DOPE     C35      CTL2    -0.180000       12.0110           0
     12337 MEMB     99       DOPE     H5X      HAL2     0.900000E-01   1.00800           0
     12338 MEMB     99       DOPE     H5Y      HAL2     0.900000E-01   1.00800           0
     12339 MEMB     99       DOPE     C36      CTL2    -0.180000       12.0110           0
     12340 MEMB     99       DOPE     H6X      HAL2     0.900000E-01   1.00800           0
     12341 MEMB     99       DOPE     H6Y      HAL2     0.900000E-01   1.00800           0
     12342 MEMB     99       DOPE     C37      CTL2    -0.180000       12.0110           0
     12343 MEMB     99       DOPE     H7X      HAL2     0.900000E-01   1.00800           0
     12344 MEMB     99       DOPE     H7Y      HAL2     0.900000E-01   1.00800           0
     12345 MEMB     99       DOPE     C38      CTL2    -0.180000       12.0110           0
     12346 MEMB     99       DOPE     H8X      HAL2     0.900000E-01   1.00800           0
     12347 MEMB     99       DOPE     H8Y      HAL2     0.900000E-01   1.00800           0
     12348 MEMB     99       DOPE     C39      CEL1    -0.150000       12.0110           0
     12349 MEMB     99       DOPE     H9X      HEL1     0.150000       1.00800           0
     12350 MEMB     99       DOPE     C310     CEL1    -0.150000       12.0110           0
     12351 MEMB     99       DOPE     H10X     HEL1     0.150000       1.00800           0
     12352 MEMB     99       DOPE     C311     CTL2    -0.180000       12.0110           0
     12353 MEMB     99       DOPE     H11X     HAL2     0.900000E-01   1.00800           0
     12354 MEMB     99       DOPE     H11Y     HAL2     0.900000E-01   1.00800           0
     12355 MEMB     99       DOPE     C312     CTL2    -0.180000       12.0110           0
     12356 MEMB     99       DOPE     H12X     HAL2     0.900000E-01   1.00800           0
     12357 MEMB     99       DOPE     H12Y     HAL2     0.900000E-01   1.00800           0
     12358 MEMB     99       DOPE     C313     CTL2    -0.180000       12.0110           0
     12359 MEMB     99       DOPE     H13X     HAL2     0.900000E-01   1.00800           0
     12360 MEMB     99       DOPE     H13Y     HAL2     0.900000E-01   1.00800           0
     12361 MEMB     99       DOPE     C314     CTL2    -0.180000       12.0110           0
     12362 MEMB     99       DOPE     H14X     HAL2     0.900000E-01   1.00800           0
     12363 MEMB     99       DOPE     H14Y     HAL2     0.900000E-01   1.00800           0
     12364 MEMB     99       DOPE     C315     CTL2    -0.180000       12.0110           0
     12365 MEMB     99       DOPE     H15X     HAL2     0.900000E-01   1.00800           0
     12366 MEMB     99       DOPE     H15Y     HAL2     0.900000E-01   1.00800           0
     12367 MEMB     99       DOPE     C316     CTL2    -0.180000       12.0110           0
     12368 MEMB     99       DOPE     H16X     HAL2     0.900000E-01   1.00800           0
     12369 MEMB     99       DOPE     H16Y     HAL2     0.900000E-01   1.00800           0
     12370 MEMB     99       DOPE     C317     CTL2    -0.180000       12.0110           0
     12371 MEMB     99       DOPE     H17X     HAL2     0.900000E-01   1.00800           0
     12372 MEMB     99       DOPE     H17Y     HAL2     0.900000E-01   1.00800           0
     12373 MEMB     99       DOPE     C318     CTL3    -0.270000       12.0110           0
     12374 MEMB     99       DOPE     H18X     HAL3     0.900000E-01   1.00800           0
     12375 MEMB     99       DOPE     H18Y     HAL3     0.900000E-01   1.00800           0
     12376 MEMB     99       DOPE     H18Z     HAL3     0.900000E-01   1.00800           0
     12377 MEMB     100      CHL1     C3       CRL1     0.140000       12.0110           0
     12378 MEMB     100      CHL1     H3       HGA1     0.900000E-01   1.00800           0
     12379 MEMB     100      CHL1     O3       OHL     -0.660000       15.9994           0
     12380 MEMB     100      CHL1     H3'      HOL      0.430000       1.00800           0
     12381 MEMB     100      CHL1     C4       CRL2    -0.180000       12.0110           0
     12382 MEMB     100      CHL1     H4A      HGA2     0.900000E-01   1.00800           0
     12383 MEMB     100      CHL1     H4B      HGA2     0.900000E-01   1.00800           0
     12384 MEMB     100      CHL1     C5       CEL1      0.00000       12.0110           0
     12385 MEMB     100      CHL1     C6       CEL1    -0.150000       12.0110           0
     12386 MEMB     100      CHL1     H6       HEL1     0.150000       1.00800           0
     12387 MEMB     100      CHL1     C7       CRL2    -0.180000       12.0110           0
     12388 MEMB     100      CHL1     H7A      HGA2     0.900000E-01   1.00800           0
     12389 MEMB     100      CHL1     H7B      HGA2     0.900000E-01   1.00800           0
     12390 MEMB     100      CHL1     C8       CRL1    -0.900000E-01   12.0110           0
     12391 MEMB     100      CHL1     H8       HGA1     0.900000E-01   1.00800           0
     12392 MEMB     100      CHL1     C14      CRL1    -0.900000E-01   12.0110           0
     12393 MEMB     100      CHL1     H14      HGA1     0.900000E-01   1.00800           0
     12394 MEMB     100      CHL1     C15      CRL2    -0.180000       12.0110           0
     12395 MEMB     100      CHL1     H15A     HGA2     0.900000E-01   1.00800           0
     12396 MEMB     100      CHL1     H15B     HGA2     0.900000E-01   1.00800           0
     12397 MEMB     100      CHL1     C16      CRL2    -0.180000       12.0110           0
     12398 MEMB     100      CHL1     H16A     HGA2     0.900000E-01   1.00800           0
     12399 MEMB     100      CHL1     H16B     HGA2     0.900000E-01   1.00800           0
     12400 MEMB     100      CHL1     C17      CRL1    -0.900000E-01   12.0110           0
     12401 MEMB     100      CHL1     H17      HGA1     0.900000E-01   1.00800           0
     12402 MEMB     100      CHL1     C13      CRL1      0.00000       12.0110           0
     12403 MEMB     100      CHL1     C18      CTL3    -0.270000       12.0110           0
     12404 MEMB     100      CHL1     H18A     HAL3     0.900000E-01   1.00800           0
     12405 MEMB     100      CHL1     H18B     HAL3     0.900000E-01   1.00800           0
     12406 MEMB     100      CHL1     H18C     HAL3     0.900000E-01   1.00800           0
     12407 MEMB     100      CHL1     C12      CRL2    -0.180000       12.0110           0
     12408 MEMB     100      CHL1     H12A     HGA2     0.900000E-01   1.00800           0
     12409 MEMB     100      CHL1     H12B     HGA2     0.900000E-01   1.00800           0
     12410 MEMB     100      CHL1     C11      CRL2    -0.180000       12.0110           0
     12411 MEMB     100      CHL1     H11A     HGA2     0.900000E-01   1.00800           0
     12412 MEMB     100      CHL1     H11B     HGA2     0.900000E-01   1.00800           0
     12413 MEMB     100      CHL1     C9       CRL1    -0.900000E-01   12.0110           0
     12414 MEMB     100      CHL1     H9       HGA1     0.900000E-01   1.00800           0
     12415 MEMB     100      CHL1     C10      CRL1      0.00000       12.0110           0
     12416 MEMB     100      CHL1     C19      CTL3    -0.270000       12.0110           0
     12417 MEMB     100      CHL1     H19A     HAL3     0.900000E-01   1.00800           0
     12418 MEMB     100      CHL1     H19B     HAL3     0.900000E-01   1.00800           0
     12419 MEMB     100      CHL1     H19C     HAL3     0.900000E-01   1.00800           0
     12420 MEMB     100      CHL1     C1       CRL2    -0.180000       12.0110           0
     12421 MEMB     100      CHL1     H1A      HGA2     0.900000E-01   1.00800           0
     12422 MEMB     100      CHL1     H1B      HGA2     0.900000E-01   1.00800           0
     12423 MEMB     100      CHL1     C2       CRL2    -0.180000       12.0110           0
     12424 MEMB     100      CHL1     H2A      HGA2     0.900000E-01   1.00800           0
     12425 MEMB     100      CHL1     H2B      HGA2     0.900000E-01   1.00800           0
     12426 MEMB     100      CHL1     C20      CTL1    -0.900000E-01   12.0110           0
     12427 MEMB     100      CHL1     H20      HAL1     0.900000E-01   1.00800           0
     12428 MEMB     100      CHL1     C21      CTL3    -0.270000       12.0110           0
     12429 MEMB     100      CHL1     H21A     HAL3     0.900000E-01   1.00800           0
     12430 MEMB     100      CHL1     H21B     HAL3     0.900000E-01   1.00800           0
     12431 MEMB     100      CHL1     H21C     HAL3     0.900000E-01   1.00800           0
     12432 MEMB     100      CHL1     C22      CTL2    -0.180000       12.0110           0
     12433 MEMB     100      CHL1     H22A     HAL2     0.900000E-01   1.00800           0
     12434 MEMB     100      CHL1     H22B     HAL2     0.900000E-01   1.00800           0
     12435 MEMB     100      CHL1     C23      CTL2    -0.180000       12.0110           0
     12436 MEMB     100      CHL1     H23A     HAL2     0.900000E-01   1.00800           0
     12437 MEMB     100      CHL1     H23B     HAL2     0.900000E-01   1.00800           0
     12438 MEMB     100      CHL1     C24      CTL2    -0.180000       12.0110           0
     12439 MEMB     100      CHL1     H24A     HAL2     0.900000E-01   1.00800           0
     12440 MEMB     100      CHL1     H24B     HAL2     0.900000E-01   1.00800           0
     12441 MEMB     100      CHL1     C25      CTL1    -0.900000E-01   12.0110           0
     12442 MEMB     100      CHL1     H25      HAL1     0.900000E-01   1.00800           0
     12443 MEMB     100      CHL1     C26      CTL3    -0.270000       12.0110           0
     12444 MEMB     100      CHL1     H26A     HAL3     0.900000E-01   1.00800           0
     12445 MEMB     100      CHL1     H26B     HAL3     0.900000E-01   1.00800           0
     12446 MEMB     100      CHL1     H26C     HAL3     0.900000E-01   1.00800           0
     12447 MEMB     100      CHL1     C27      CTL3    -0.270000       12.0110           0
     12448 MEMB     100      CHL1     H27A     HAL3     0.900000E-01   1.00800           0
     12449 MEMB     100      CHL1     H27B     HAL3     0.900000E-01   1.00800           0
     12450 MEMB     100      CHL1     H27C     HAL3     0.900000E-01   1.00800           0
     12451 MEMB     101      23SM     N        NTL     -0.600000       14.0070           0
     12452 MEMB     101      23SM     C15      CTL5    -0.350000       12.0110           0
     12453 MEMB     101      23SM     H15A     HL       0.250000       1.00800           0
     12454 MEMB     101      23SM     H15B     HL       0.250000       1.00800           0
     12455 MEMB     101      23SM     H15C     HL       0.250000       1.00800           0
     12456 MEMB     101      23SM     C14      CTL5    -0.350000       12.0110           0
     12457 MEMB     101      23SM     H14A     HL       0.250000       1.00800           0
     12458 MEMB     101      23SM     H14B     HL       0.250000       1.00800           0
     12459 MEMB     101      23SM     H14C     HL       0.250000       1.00800           0
     12460 MEMB     101      23SM     C13      CTL5    -0.350000       12.0110           0
     12461 MEMB     101      23SM     H13A     HL       0.250000       1.00800           0
     12462 MEMB     101      23SM     H13B     HL       0.250000       1.00800           0
     12463 MEMB     101      23SM     H13C     HL       0.250000       1.00800           0
     12464 MEMB     101      23SM     C12      CTL2    -0.100000       12.0110           0
     12465 MEMB     101      23SM     H12A     HL       0.250000       1.00800           0
     12466 MEMB     101      23SM     H12B     HL       0.250000       1.00800           0
     12467 MEMB     101      23SM     C11      CTL2    -0.800000E-01   12.0110           0
     12468 MEMB     101      23SM     H11A     HAL2     0.900000E-01   1.00800           0
     12469 MEMB     101      23SM     H11B     HAL2     0.900000E-01   1.00800           0
     12470 MEMB     101      23SM     P        PL        1.50000       30.9740           0
     12471 MEMB     101      23SM     O13      O2L     -0.780000       15.9994           0
     12472 MEMB     101      23SM     O14      O2L     -0.780000       15.9994           0
     12473 MEMB     101      23SM     O11      OSLP    -0.570000       15.9994           0
     12474 MEMB     101      23SM     O12      OSLP    -0.570000       15.9994           0
     12475 MEMB     101      23SM     C1S      CTL2    -0.800000E-01   12.0110           0
     12476 MEMB     101      23SM     H1S      HAL2     0.900000E-01   1.00800           0
     12477 MEMB     101      23SM     H1T      HAL2     0.900000E-01   1.00800           0
     12478 MEMB     101      23SM     NF       NHL     -0.700000       14.0070           0
     12479 MEMB     101      23SM     HNF      H        0.350000       1.00800           0
     12480 MEMB     101      23SM     C2S      CTL1     0.300000       12.0110           0
     12481 MEMB     101      23SM     H2S      HAL1     0.500000E-01   1.00800           0
     12482 MEMB     101      23SM     C3S      CTO1     0.500000       12.0110           0
     12483 MEMB     101      23SM     H3S      HAL1    -0.110000       1.00800           0
     12484 MEMB     101      23SM     O3       OHL     -0.690000       15.9994           0
     12485 MEMB     101      23SM     HO3      HOL      0.300000       1.00800           0
     12486 MEMB     101      23SM     C4S      CEL3    -0.150000       12.0110           0
     12487 MEMB     101      23SM     H4S      HEL1     0.150000       1.00800           0
     12488 MEMB     101      23SM     C5S      CEL3    -0.150000       12.0110           0
     12489 MEMB     101      23SM     H5S      HEL1     0.150000       1.00800           0
     12490 MEMB     101      23SM     C6S      CTL2    -0.180000       12.0110           0
     12491 MEMB     101      23SM     H6S      HAL2     0.900000E-01   1.00800           0
     12492 MEMB     101      23SM     H6T      HAL2     0.900000E-01   1.00800           0
     12493 MEMB     101      23SM     C7S      CTL2    -0.180000       12.0110           0
     12494 MEMB     101      23SM     H7S      HAL2     0.900000E-01   1.00800           0
     12495 MEMB     101      23SM     H7T      HAL2     0.900000E-01   1.00800           0
     12496 MEMB     101      23SM     C8S      CTL2    -0.180000       12.0110           0
     12497 MEMB     101      23SM     H8S      HAL2     0.900000E-01   1.00800           0
     12498 MEMB     101      23SM     H8T      HAL2     0.900000E-01   1.00800           0
     12499 MEMB     101      23SM     C9S      CTL2    -0.180000       12.0110           0
     12500 MEMB     101      23SM     H9S      HAL2     0.900000E-01   1.00800           0
     12501 MEMB     101      23SM     H9T      HAL2     0.900000E-01   1.00800           0
     12502 MEMB     101      23SM     C10S     CTL2    -0.180000       12.0110           0
     12503 MEMB     101      23SM     H10S     HAL2     0.900000E-01   1.00800           0
     12504 MEMB     101      23SM     H10T     HAL2     0.900000E-01   1.00800           0
     12505 MEMB     101      23SM     C11S     CTL2    -0.180000       12.0110           0
     12506 MEMB     101      23SM     H11S     HAL2     0.900000E-01   1.00800           0
     12507 MEMB     101      23SM     H11T     HAL2     0.900000E-01   1.00800           0
     12508 MEMB     101      23SM     C12S     CTL2    -0.180000       12.0110           0
     12509 MEMB     101      23SM     H12S     HAL2     0.900000E-01   1.00800           0
     12510 MEMB     101      23SM     H12T     HAL2     0.900000E-01   1.00800           0
     12511 MEMB     101      23SM     C13S     CTL2    -0.180000       12.0110           0
     12512 MEMB     101      23SM     H13S     HAL2     0.900000E-01   1.00800           0
     12513 MEMB     101      23SM     H13T     HAL2     0.900000E-01   1.00800           0
     12514 MEMB     101      23SM     C14S     CTL2    -0.180000       12.0110           0
     12515 MEMB     101      23SM     H14S     HAL2     0.900000E-01   1.00800           0
     12516 MEMB     101      23SM     H14T     HAL2     0.900000E-01   1.00800           0
     12517 MEMB     101      23SM     C15S     CTL2    -0.180000       12.0110           0
     12518 MEMB     101      23SM     H15S     HAL2     0.900000E-01   1.00800           0
     12519 MEMB     101      23SM     H15T     HAL2     0.900000E-01   1.00800           0
     12520 MEMB     101      23SM     C16S     CTL2    -0.180000       12.0110           0
     12521 MEMB     101      23SM     H16S     HAL2     0.900000E-01   1.00800           0
     12522 MEMB     101      23SM     H16T     HAL2     0.900000E-01   1.00800           0
     12523 MEMB     101      23SM     C17S     CTL2    -0.180000       12.0110           0
     12524 MEMB     101      23SM     H17S     HAL2     0.900000E-01   1.00800           0
     12525 MEMB     101      23SM     H17T     HAL2     0.900000E-01   1.00800           0
     12526 MEMB     101      23SM     C18S     CTL3    -0.270000       12.0110           0
     12527 MEMB     101      23SM     H18S     HAL3     0.900000E-01   1.00800           0
     12528 MEMB     101      23SM     H18T     HAL3     0.900000E-01   1.00800           0
     12529 MEMB     101      23SM     H18U     HAL3     0.900000E-01   1.00800           0
     12530 MEMB     101      23SM     C1F      C        0.550000       12.0110           0
     12531 MEMB     101      23SM     OF       O       -0.600000       15.9994           0
     12532 MEMB     101      23SM     C2F      CTL2    -0.700000E-01   12.0110           0
     12533 MEMB     101      23SM     H2F      HAL2     0.600000E-01   1.00800           0
     12534 MEMB     101      23SM     H2G      HAL2     0.600000E-01   1.00800           0
     12535 MEMB     101      23SM     C3F      CTL2    -0.180000       12.0110           0
     12536 MEMB     101      23SM     H3F      HAL2     0.900000E-01   1.00800           0
     12537 MEMB     101      23SM     H3G      HAL2     0.900000E-01   1.00800           0
     12538 MEMB     101      23SM     C4F      CTL2    -0.180000       12.0110           0
     12539 MEMB     101      23SM     H4F      HAL2     0.900000E-01   1.00800           0
     12540 MEMB     101      23SM     H4G      HAL2     0.900000E-01   1.00800           0
     12541 MEMB     101      23SM     C5F      CTL2    -0.180000       12.0110           0
     12542 MEMB     101      23SM     H5F      HAL2     0.900000E-01   1.00800           0
     12543 MEMB     101      23SM     H5G      HAL2     0.900000E-01   1.00800           0
     12544 MEMB     101      23SM     C6F      CTL2    -0.180000       12.0110           0
     12545 MEMB     101      23SM     H6F      HAL2     0.900000E-01   1.00800           0
     12546 MEMB     101      23SM     H6G      HAL2     0.900000E-01   1.00800           0
     12547 MEMB     101      23SM     C7F      CTL2    -0.180000       12.0110           0
     12548 MEMB     101      23SM     H7F      HAL2     0.900000E-01   1.00800           0
     12549 MEMB     101      23SM     H7G      HAL2     0.900000E-01   1.00800           0
     12550 MEMB     101      23SM     C8F      CTL2    -0.180000       12.0110           0
     12551 MEMB     101      23SM     H8F      HAL2     0.900000E-01   1.00800           0
     12552 MEMB     101      23SM     H8G      HAL2     0.900000E-01   1.00800           0
     12553 MEMB     101      23SM     C9F      CTL2    -0.180000       12.0110           0
     12554 MEMB     101      23SM     H9F      HAL2     0.900000E-01   1.00800           0
     12555 MEMB     101      23SM     H9G      HAL2     0.900000E-01   1.00800           0
     12556 MEMB     101      23SM     C10F     CTL2    -0.180000       12.0110           0
     12557 MEMB     101      23SM     H10F     HAL2     0.900000E-01   1.00800           0
     12558 MEMB     101      23SM     H10G     HAL2     0.900000E-01   1.00800           0
     12559 MEMB     101      23SM     C11F     CTL2    -0.180000       12.0110           0
     12560 MEMB     101      23SM     H11F     HAL2     0.900000E-01   1.00800           0
     12561 MEMB     101      23SM     H11G     HAL2     0.900000E-01   1.00800           0
     12562 MEMB     101      23SM     C12F     CTL2    -0.180000       12.0110           0
     12563 MEMB     101      23SM     H12F     HAL2     0.900000E-01   1.00800           0
     12564 MEMB     101      23SM     H12G     HAL2     0.900000E-01   1.00800           0
     12565 MEMB     101      23SM     C13F     CTL2    -0.180000       12.0110           0
     12566 MEMB     101      23SM     H13F     HAL2     0.900000E-01   1.00800           0
     12567 MEMB     101      23SM     H13G     HAL2     0.900000E-01   1.00800           0
     12568 MEMB     101      23SM     C14F     CTL2    -0.180000       12.0110           0
     12569 MEMB     101      23SM     H14F     HAL2     0.900000E-01   1.00800           0
     12570 MEMB     101      23SM     H14G     HAL2     0.900000E-01   1.00800           0
     12571 MEMB     101      23SM     C15F     CTL2    -0.180000       12.0110           0
     12572 MEMB     101      23SM     H15F     HAL2     0.900000E-01   1.00800           0
     12573 MEMB     101      23SM     H15G     HAL2     0.900000E-01   1.00800           0
     12574 MEMB     101      23SM     C16F     CTL2    -0.180000       12.0110           0
     12575 MEMB     101      23SM     H16F     HAL2     0.900000E-01   1.00800           0
     12576 MEMB     101      23SM     H16G     HAL2     0.900000E-01   1.00800           0
     12577 MEMB     101      23SM     C17F     CTL2    -0.180000       12.0110           0
     12578 MEMB     101      23SM     H17F     HAL2     0.900000E-01   1.00800           0
     12579 MEMB     101      23SM     H17G     HAL2     0.900000E-01   1.00800           0
     12580 MEMB     101      23SM     C18F     CTL2    -0.180000       12.0110           0
     12581 MEMB     101      23SM     H18F     HAL2     0.900000E-01   1.00800           0
     12582 MEMB     101      23SM     H18G     HAL2     0.900000E-01   1.00800           0
     12583 MEMB     101      23SM     C19F     CTL2    -0.180000       12.0110           0
     12584 MEMB     101      23SM     H19F     HAL2     0.900000E-01   1.00800           0
     12585 MEMB     101      23SM     H19G     HAL2     0.900000E-01   1.00800           0
     12586 MEMB     101      23SM     C20F     CTL2    -0.180000       12.0110           0
     12587 MEMB     101      23SM     H20F     HAL2     0.900000E-01   1.00800           0
     12588 MEMB     101      23SM     H20G     HAL2     0.900000E-01   1.00800           0
     12589 MEMB     101      23SM     C21F     CTL2    -0.180000       12.0110           0
     12590 MEMB     101      23SM     H21F     HAL2     0.900000E-01   1.00800           0
     12591 MEMB     101      23SM     H21G     HAL2     0.900000E-01   1.00800           0
     12592 MEMB     101      23SM     C22F     CTL2    -0.180000       12.0110           0
     12593 MEMB     101      23SM     H22F     HAL2     0.900000E-01   1.00800           0
     12594 MEMB     101      23SM     H22G     HAL2     0.900000E-01   1.00800           0
     12595 MEMB     101      23SM     C23F     CTL3    -0.270000       12.0110           0
     12596 MEMB     101      23SM     H23F     HAL3     0.900000E-01   1.00800           0
     12597 MEMB     101      23SM     H23G     HAL3     0.900000E-01   1.00800           0
     12598 MEMB     101      23SM     H23H     HAL3     0.900000E-01   1.00800           0
     12599 MEMB     102      CHL1     C3       CRL1     0.140000       12.0110           0
     12600 MEMB     102      CHL1     H3       HGA1     0.900000E-01   1.00800           0
     12601 MEMB     102      CHL1     O3       OHL     -0.660000       15.9994           0
     12602 MEMB     102      CHL1     H3'      HOL      0.430000       1.00800           0
     12603 MEMB     102      CHL1     C4       CRL2    -0.180000       12.0110           0
     12604 MEMB     102      CHL1     H4A      HGA2     0.900000E-01   1.00800           0
     12605 MEMB     102      CHL1     H4B      HGA2     0.900000E-01   1.00800           0
     12606 MEMB     102      CHL1     C5       CEL1      0.00000       12.0110           0
     12607 MEMB     102      CHL1     C6       CEL1    -0.150000       12.0110           0
     12608 MEMB     102      CHL1     H6       HEL1     0.150000       1.00800           0
     12609 MEMB     102      CHL1     C7       CRL2    -0.180000       12.0110           0
     12610 MEMB     102      CHL1     H7A      HGA2     0.900000E-01   1.00800           0
     12611 MEMB     102      CHL1     H7B      HGA2     0.900000E-01   1.00800           0
     12612 MEMB     102      CHL1     C8       CRL1    -0.900000E-01   12.0110           0
     12613 MEMB     102      CHL1     H8       HGA1     0.900000E-01   1.00800           0
     12614 MEMB     102      CHL1     C14      CRL1    -0.900000E-01   12.0110           0
     12615 MEMB     102      CHL1     H14      HGA1     0.900000E-01   1.00800           0
     12616 MEMB     102      CHL1     C15      CRL2    -0.180000       12.0110           0
     12617 MEMB     102      CHL1     H15A     HGA2     0.900000E-01   1.00800           0
     12618 MEMB     102      CHL1     H15B     HGA2     0.900000E-01   1.00800           0
     12619 MEMB     102      CHL1     C16      CRL2    -0.180000       12.0110           0
     12620 MEMB     102      CHL1     H16A     HGA2     0.900000E-01   1.00800           0
     12621 MEMB     102      CHL1     H16B     HGA2     0.900000E-01   1.00800           0
     12622 MEMB     102      CHL1     C17      CRL1    -0.900000E-01   12.0110           0
     12623 MEMB     102      CHL1     H17      HGA1     0.900000E-01   1.00800           0
     12624 MEMB     102      CHL1     C13      CRL1      0.00000       12.0110           0
     12625 MEMB     102      CHL1     C18      CTL3    -0.270000       12.0110           0
     12626 MEMB     102      CHL1     H18A     HAL3     0.900000E-01   1.00800           0
     12627 MEMB     102      CHL1     H18B     HAL3     0.900000E-01   1.00800           0
     12628 MEMB     102      CHL1     H18C     HAL3     0.900000E-01   1.00800           0
     12629 MEMB     102      CHL1     C12      CRL2    -0.180000       12.0110           0
     12630 MEMB     102      CHL1     H12A     HGA2     0.900000E-01   1.00800           0
     12631 MEMB     102      CHL1     H12B     HGA2     0.900000E-01   1.00800           0
     12632 MEMB     102      CHL1     C11      CRL2    -0.180000       12.0110           0
     12633 MEMB     102      CHL1     H11A     HGA2     0.900000E-01   1.00800           0
     12634 MEMB     102      CHL1     H11B     HGA2     0.900000E-01   1.00800           0
     12635 MEMB     102      CHL1     C9       CRL1    -0.900000E-01   12.0110           0
     12636 MEMB     102      CHL1     H9       HGA1     0.900000E-01   1.00800           0
     12637 MEMB     102      CHL1     C10      CRL1      0.00000       12.0110           0
     12638 MEMB     102      CHL1     C19      CTL3    -0.270000       12.0110           0
     12639 MEMB     102      CHL1     H19A     HAL3     0.900000E-01   1.00800           0
     12640 MEMB     102      CHL1     H19B     HAL3     0.900000E-01   1.00800           0
     12641 MEMB     102      CHL1     H19C     HAL3     0.900000E-01   1.00800           0
     12642 MEMB     102      CHL1     C1       CRL2    -0.180000       12.0110           0
     12643 MEMB     102      CHL1     H1A      HGA2     0.900000E-01   1.00800           0
     12644 MEMB     102      CHL1     H1B      HGA2     0.900000E-01   1.00800           0
     12645 MEMB     102      CHL1     C2       CRL2    -0.180000       12.0110           0
     12646 MEMB     102      CHL1     H2A      HGA2     0.900000E-01   1.00800           0
     12647 MEMB     102      CHL1     H2B      HGA2     0.900000E-01   1.00800           0
     12648 MEMB     102      CHL1     C20      CTL1    -0.900000E-01   12.0110           0
     12649 MEMB     102      CHL1     H20      HAL1     0.900000E-01   1.00800           0
     12650 MEMB     102      CHL1     C21      CTL3    -0.270000       12.0110           0
     12651 MEMB     102      CHL1     H21A     HAL3     0.900000E-01   1.00800           0
     12652 MEMB     102      CHL1     H21B     HAL3     0.900000E-01   1.00800           0
     12653 MEMB     102      CHL1     H21C     HAL3     0.900000E-01   1.00800           0
     12654 MEMB     102      CHL1     C22      CTL2    -0.180000       12.0110           0
     12655 MEMB     102      CHL1     H22A     HAL2     0.900000E-01   1.00800           0
     12656 MEMB     102      CHL1     H22B     HAL2     0.900000E-01   1.00800           0
     12657 MEMB     102      CHL1     C23      CTL2    -0.180000       12.0110           0
     12658 MEMB     102      CHL1     H23A     HAL2     0.900000E-01   1.00800           0
     12659 MEMB     102      CHL1     H23B     HAL2     0.900000E-01   1.00800           0
     12660 MEMB     102      CHL1     C24      CTL2    -0.180000       12.0110           0
     12661 MEMB     102      CHL1     H24A     HAL2     0.900000E-01   1.00800           0
     12662 MEMB     102      CHL1     H24B     HAL2     0.900000E-01   1.00800           0
     12663 MEMB     102      CHL1     C25      CTL1    -0.900000E-01   12.0110           0
     12664 MEMB     102      CHL1     H25      HAL1     0.900000E-01   1.00800           0
     12665 MEMB     102      CHL1     C26      CTL3    -0.270000       12.0110           0
     12666 MEMB     102      CHL1     H26A     HAL3     0.900000E-01   1.00800           0
     12667 MEMB     102      CHL1     H26B     HAL3     0.900000E-01   1.00800           0
     12668 MEMB     102      CHL1     H26C     HAL3     0.900000E-01   1.00800           0
     12669 MEMB     102      CHL1     C27      CTL3    -0.270000       12.0110           0
     12670 MEMB     102      CHL1     H27A     HAL3     0.900000E-01   1.00800           0
     12671 MEMB     102      CHL1     H27B     HAL3     0.900000E-01   1.00800           0
     12672 MEMB     102      CHL1     H27C     HAL3     0.900000E-01   1.00800           0
     12673 MEMB     103      23SM     N        NTL     -0.600000       14.0070           0
     12674 MEMB     103      23SM     C15      CTL5    -0.350000       12.0110           0
     12675 MEMB     103      23SM     H15A     HL       0.250000       1.00800           0
     12676 MEMB     103      23SM     H15B     HL       0.250000       1.00800           0
     12677 MEMB     103      23SM     H15C     HL       0.250000       1.00800           0
     12678 MEMB     103      23SM     C14      CTL5    -0.350000       12.0110           0
     12679 MEMB     103      23SM     H14A     HL       0.250000       1.00800           0
     12680 MEMB     103      23SM     H14B     HL       0.250000       1.00800           0
     12681 MEMB     103      23SM     H14C     HL       0.250000       1.00800           0
     12682 MEMB     103      23SM     C13      CTL5    -0.350000       12.0110           0
     12683 MEMB     103      23SM     H13A     HL       0.250000       1.00800           0
     12684 MEMB     103      23SM     H13B     HL       0.250000       1.00800           0
     12685 MEMB     103      23SM     H13C     HL       0.250000       1.00800           0
     12686 MEMB     103      23SM     C12      CTL2    -0.100000       12.0110           0
     12687 MEMB     103      23SM     H12A     HL       0.250000       1.00800           0
     12688 MEMB     103      23SM     H12B     HL       0.250000       1.00800           0
     12689 MEMB     103      23SM     C11      CTL2    -0.800000E-01   12.0110           0
     12690 MEMB     103      23SM     H11A     HAL2     0.900000E-01   1.00800           0
     12691 MEMB     103      23SM     H11B     HAL2     0.900000E-01   1.00800           0
     12692 MEMB     103      23SM     P        PL        1.50000       30.9740           0
     12693 MEMB     103      23SM     O13      O2L     -0.780000       15.9994           0
     12694 MEMB     103      23SM     O14      O2L     -0.780000       15.9994           0
     12695 MEMB     103      23SM     O11      OSLP    -0.570000       15.9994           0
     12696 MEMB     103      23SM     O12      OSLP    -0.570000       15.9994           0
     12697 MEMB     103      23SM     C1S      CTL2    -0.800000E-01   12.0110           0
     12698 MEMB     103      23SM     H1S      HAL2     0.900000E-01   1.00800           0
     12699 MEMB     103      23SM     H1T      HAL2     0.900000E-01   1.00800           0
     12700 MEMB     103      23SM     NF       NHL     -0.700000       14.0070           0
     12701 MEMB     103      23SM     HNF      H        0.350000       1.00800           0
     12702 MEMB     103      23SM     C2S      CTL1     0.300000       12.0110           0
     12703 MEMB     103      23SM     H2S      HAL1     0.500000E-01   1.00800           0
     12704 MEMB     103      23SM     C3S      CTO1     0.500000       12.0110           0
     12705 MEMB     103      23SM     H3S      HAL1    -0.110000       1.00800           0
     12706 MEMB     103      23SM     O3       OHL     -0.690000       15.9994           0
     12707 MEMB     103      23SM     HO3      HOL      0.300000       1.00800           0
     12708 MEMB     103      23SM     C4S      CEL3    -0.150000       12.0110           0
     12709 MEMB     103      23SM     H4S      HEL1     0.150000       1.00800           0
     12710 MEMB     103      23SM     C5S      CEL3    -0.150000       12.0110           0
     12711 MEMB     103      23SM     H5S      HEL1     0.150000       1.00800           0
     12712 MEMB     103      23SM     C6S      CTL2    -0.180000       12.0110           0
     12713 MEMB     103      23SM     H6S      HAL2     0.900000E-01   1.00800           0
     12714 MEMB     103      23SM     H6T      HAL2     0.900000E-01   1.00800           0
     12715 MEMB     103      23SM     C7S      CTL2    -0.180000       12.0110           0
     12716 MEMB     103      23SM     H7S      HAL2     0.900000E-01   1.00800           0
     12717 MEMB     103      23SM     H7T      HAL2     0.900000E-01   1.00800           0
     12718 MEMB     103      23SM     C8S      CTL2    -0.180000       12.0110           0
     12719 MEMB     103      23SM     H8S      HAL2     0.900000E-01   1.00800           0
     12720 MEMB     103      23SM     H8T      HAL2     0.900000E-01   1.00800           0
     12721 MEMB     103      23SM     C9S      CTL2    -0.180000       12.0110           0
     12722 MEMB     103      23SM     H9S      HAL2     0.900000E-01   1.00800           0
     12723 MEMB     103      23SM     H9T      HAL2     0.900000E-01   1.00800           0
     12724 MEMB     103      23SM     C10S     CTL2    -0.180000       12.0110           0
     12725 MEMB     103      23SM     H10S     HAL2     0.900000E-01   1.00800           0
     12726 MEMB     103      23SM     H10T     HAL2     0.900000E-01   1.00800           0
     12727 MEMB     103      23SM     C11S     CTL2    -0.180000       12.0110           0
     12728 MEMB     103      23SM     H11S     HAL2     0.900000E-01   1.00800           0
     12729 MEMB     103      23SM     H11T     HAL2     0.900000E-01   1.00800           0
     12730 MEMB     103      23SM     C12S     CTL2    -0.180000       12.0110           0
     12731 MEMB     103      23SM     H12S     HAL2     0.900000E-01   1.00800           0
     12732 MEMB     103      23SM     H12T     HAL2     0.900000E-01   1.00800           0
     12733 MEMB     103      23SM     C13S     CTL2    -0.180000       12.0110           0
     12734 MEMB     103      23SM     H13S     HAL2     0.900000E-01   1.00800           0
     12735 MEMB     103      23SM     H13T     HAL2     0.900000E-01   1.00800           0
     12736 MEMB     103      23SM     C14S     CTL2    -0.180000       12.0110           0
     12737 MEMB     103      23SM     H14S     HAL2     0.900000E-01   1.00800           0
     12738 MEMB     103      23SM     H14T     HAL2     0.900000E-01   1.00800           0
     12739 MEMB     103      23SM     C15S     CTL2    -0.180000       12.0110           0
     12740 MEMB     103      23SM     H15S     HAL2     0.900000E-01   1.00800           0
     12741 MEMB     103      23SM     H15T     HAL2     0.900000E-01   1.00800           0
     12742 MEMB     103      23SM     C16S     CTL2    -0.180000       12.0110           0
     12743 MEMB     103      23SM     H16S     HAL2     0.900000E-01   1.00800           0
     12744 MEMB     103      23SM     H16T     HAL2     0.900000E-01   1.00800           0
     12745 MEMB     103      23SM     C17S     CTL2    -0.180000       12.0110           0
     12746 MEMB     103      23SM     H17S     HAL2     0.900000E-01   1.00800           0
     12747 MEMB     103      23SM     H17T     HAL2     0.900000E-01   1.00800           0
     12748 MEMB     103      23SM     C18S     CTL3    -0.270000       12.0110           0
     12749 MEMB     103      23SM     H18S     HAL3     0.900000E-01   1.00800           0
     12750 MEMB     103      23SM     H18T     HAL3     0.900000E-01   1.00800           0
     12751 MEMB     103      23SM     H18U     HAL3     0.900000E-01   1.00800           0
     12752 MEMB     103      23SM     C1F      C        0.550000       12.0110           0
     12753 MEMB     103      23SM     OF       O       -0.600000       15.9994           0
     12754 MEMB     103      23SM     C2F      CTL2    -0.700000E-01   12.0110           0
     12755 MEMB     103      23SM     H2F      HAL2     0.600000E-01   1.00800           0
     12756 MEMB     103      23SM     H2G      HAL2     0.600000E-01   1.00800           0
     12757 MEMB     103      23SM     C3F      CTL2    -0.180000       12.0110           0
     12758 MEMB     103      23SM     H3F      HAL2     0.900000E-01   1.00800           0
     12759 MEMB     103      23SM     H3G      HAL2     0.900000E-01   1.00800           0
     12760 MEMB     103      23SM     C4F      CTL2    -0.180000       12.0110           0
     12761 MEMB     103      23SM     H4F      HAL2     0.900000E-01   1.00800           0
     12762 MEMB     103      23SM     H4G      HAL2     0.900000E-01   1.00800           0
     12763 MEMB     103      23SM     C5F      CTL2    -0.180000       12.0110           0
     12764 MEMB     103      23SM     H5F      HAL2     0.900000E-01   1.00800           0
     12765 MEMB     103      23SM     H5G      HAL2     0.900000E-01   1.00800           0
     12766 MEMB     103      23SM     C6F      CTL2    -0.180000       12.0110           0
     12767 MEMB     103      23SM     H6F      HAL2     0.900000E-01   1.00800           0
     12768 MEMB     103      23SM     H6G      HAL2     0.900000E-01   1.00800           0
     12769 MEMB     103      23SM     C7F      CTL2    -0.180000       12.0110           0
     12770 MEMB     103      23SM     H7F      HAL2     0.900000E-01   1.00800           0
     12771 MEMB     103      23SM     H7G      HAL2     0.900000E-01   1.00800           0
     12772 MEMB     103      23SM     C8F      CTL2    -0.180000       12.0110           0
     12773 MEMB     103      23SM     H8F      HAL2     0.900000E-01   1.00800           0
     12774 MEMB     103      23SM     H8G      HAL2     0.900000E-01   1.00800           0
     12775 MEMB     103      23SM     C9F      CTL2    -0.180000       12.0110           0
     12776 MEMB     103      23SM     H9F      HAL2     0.900000E-01   1.00800           0
     12777 MEMB     103      23SM     H9G      HAL2     0.900000E-01   1.00800           0
     12778 MEMB     103      23SM     C10F     CTL2    -0.180000       12.0110           0
     12779 MEMB     103      23SM     H10F     HAL2     0.900000E-01   1.00800           0
     12780 MEMB     103      23SM     H10G     HAL2     0.900000E-01   1.00800           0
     12781 MEMB     103      23SM     C11F     CTL2    -0.180000       12.0110           0
     12782 MEMB     103      23SM     H11F     HAL2     0.900000E-01   1.00800           0
     12783 MEMB     103      23SM     H11G     HAL2     0.900000E-01   1.00800           0
     12784 MEMB     103      23SM     C12F     CTL2    -0.180000       12.0110           0
     12785 MEMB     103      23SM     H12F     HAL2     0.900000E-01   1.00800           0
     12786 MEMB     103      23SM     H12G     HAL2     0.900000E-01   1.00800           0
     12787 MEMB     103      23SM     C13F     CTL2    -0.180000       12.0110           0
     12788 MEMB     103      23SM     H13F     HAL2     0.900000E-01   1.00800           0
     12789 MEMB     103      23SM     H13G     HAL2     0.900000E-01   1.00800           0
     12790 MEMB     103      23SM     C14F     CTL2    -0.180000       12.0110           0
     12791 MEMB     103      23SM     H14F     HAL2     0.900000E-01   1.00800           0
     12792 MEMB     103      23SM     H14G     HAL2     0.900000E-01   1.00800           0
     12793 MEMB     103      23SM     C15F     CTL2    -0.180000       12.0110           0
     12794 MEMB     103      23SM     H15F     HAL2     0.900000E-01   1.00800           0
     12795 MEMB     103      23SM     H15G     HAL2     0.900000E-01   1.00800           0
     12796 MEMB     103      23SM     C16F     CTL2    -0.180000       12.0110           0
     12797 MEMB     103      23SM     H16F     HAL2     0.900000E-01   1.00800           0
     12798 MEMB     103      23SM     H16G     HAL2     0.900000E-01   1.00800           0
     12799 MEMB     103      23SM     C17F     CTL2    -0.180000       12.0110           0
     12800 MEMB     103      23SM     H17F     HAL2     0.900000E-01   1.00800           0
     12801 MEMB     103      23SM     H17G     HAL2     0.900000E-01   1.00800           0
     12802 MEMB     103      23SM     C18F     CTL2    -0.180000       12.0110           0
     12803 MEMB     103      23SM     H18F     HAL2     0.900000E-01   1.00800           0
     12804 MEMB     103      23SM     H18G     HAL2     0.900000E-01   1.00800           0
     12805 MEMB     103      23SM     C19F     CTL2    -0.180000       12.0110           0
     12806 MEMB     103      23SM     H19F     HAL2     0.900000E-01   1.00800           0
     12807 MEMB     103      23SM     H19G     HAL2     0.900000E-01   1.00800           0
     12808 MEMB     103      23SM     C20F     CTL2    -0.180000       12.0110           0
     12809 MEMB     103      23SM     H20F     HAL2     0.900000E-01   1.00800           0
     12810 MEMB     103      23SM     H20G     HAL2     0.900000E-01   1.00800           0
     12811 MEMB     103      23SM     C21F     CTL2    -0.180000       12.0110           0
     12812 MEMB     103      23SM     H21F     HAL2     0.900000E-01   1.00800           0
     12813 MEMB     103      23SM     H21G     HAL2     0.900000E-01   1.00800           0
     12814 MEMB     103      23SM     C22F     CTL2    -0.180000       12.0110           0
     12815 MEMB     103      23SM     H22F     HAL2     0.900000E-01   1.00800           0
     12816 MEMB     103      23SM     H22G     HAL2     0.900000E-01   1.00800           0
     12817 MEMB     103      23SM     C23F     CTL3    -0.270000       12.0110           0
     12818 MEMB     103      23SM     H23F     HAL3     0.900000E-01   1.00800           0
     12819 MEMB     103      23SM     H23G     HAL3     0.900000E-01   1.00800           0
     12820 MEMB     103      23SM     H23H     HAL3     0.900000E-01   1.00800           0
     12821 MEMB     104      DOPC     N        NTL     -0.600000       14.0070           0
     12822 MEMB     104      DOPC     C12      CTL2    -0.100000       12.0110           0
     12823 MEMB     104      DOPC     H12A     HL       0.250000       1.00800           0
     12824 MEMB     104      DOPC     H12B     HL       0.250000       1.00800           0
     12825 MEMB     104      DOPC     C13      CTL5    -0.350000       12.0110           0
     12826 MEMB     104      DOPC     H13A     HL       0.250000       1.00800           0
     12827 MEMB     104      DOPC     H13B     HL       0.250000       1.00800           0
     12828 MEMB     104      DOPC     H13C     HL       0.250000       1.00800           0
     12829 MEMB     104      DOPC     C14      CTL5    -0.350000       12.0110           0
     12830 MEMB     104      DOPC     H14A     HL       0.250000       1.00800           0
     12831 MEMB     104      DOPC     H14B     HL       0.250000       1.00800           0
     12832 MEMB     104      DOPC     H14C     HL       0.250000       1.00800           0
     12833 MEMB     104      DOPC     C15      CTL5    -0.350000       12.0110           0
     12834 MEMB     104      DOPC     H15A     HL       0.250000       1.00800           0
     12835 MEMB     104      DOPC     H15B     HL       0.250000       1.00800           0
     12836 MEMB     104      DOPC     H15C     HL       0.250000       1.00800           0
     12837 MEMB     104      DOPC     C11      CTL2    -0.800000E-01   12.0110           0
     12838 MEMB     104      DOPC     H11A     HAL2     0.900000E-01   1.00800           0
     12839 MEMB     104      DOPC     H11B     HAL2     0.900000E-01   1.00800           0
     12840 MEMB     104      DOPC     P        PL        1.50000       30.9740           0
     12841 MEMB     104      DOPC     O13      O2L     -0.780000       15.9994           0
     12842 MEMB     104      DOPC     O14      O2L     -0.780000       15.9994           0
     12843 MEMB     104      DOPC     O12      OSLP    -0.570000       15.9994           0
     12844 MEMB     104      DOPC     O11      OSLP    -0.570000       15.9994           0
     12845 MEMB     104      DOPC     C1       CTL2    -0.800000E-01   12.0110           0
     12846 MEMB     104      DOPC     HA       HAL2     0.900000E-01   1.00800           0
     12847 MEMB     104      DOPC     HB       HAL2     0.900000E-01   1.00800           0
     12848 MEMB     104      DOPC     C2       CTL1     0.170000       12.0110           0
     12849 MEMB     104      DOPC     HS       HAL1     0.900000E-01   1.00800           0
     12850 MEMB     104      DOPC     O21      OSL     -0.490000       15.9994           0
     12851 MEMB     104      DOPC     C21      CL       0.900000       12.0110           0
     12852 MEMB     104      DOPC     O22      OBL     -0.630000       15.9994           0
     12853 MEMB     104      DOPC     C22      CTL2    -0.220000       12.0110           0
     12854 MEMB     104      DOPC     H2R      HAL2     0.900000E-01   1.00800           0
     12855 MEMB     104      DOPC     H2S      HAL2     0.900000E-01   1.00800           0
     12856 MEMB     104      DOPC     C3       CTL2     0.800000E-01   12.0110           0
     12857 MEMB     104      DOPC     HX       HAL2     0.900000E-01   1.00800           0
     12858 MEMB     104      DOPC     HY       HAL2     0.900000E-01   1.00800           0
     12859 MEMB     104      DOPC     O31      OSL     -0.490000       15.9994           0
     12860 MEMB     104      DOPC     C31      CL       0.900000       12.0110           0
     12861 MEMB     104      DOPC     O32      OBL     -0.630000       15.9994           0
     12862 MEMB     104      DOPC     C32      CTL2    -0.220000       12.0110           0
     12863 MEMB     104      DOPC     H2X      HAL2     0.900000E-01   1.00800           0
     12864 MEMB     104      DOPC     H2Y      HAL2     0.900000E-01   1.00800           0
     12865 MEMB     104      DOPC     C23      CTL2    -0.180000       12.0110           0
     12866 MEMB     104      DOPC     H3R      HAL2     0.900000E-01   1.00800           0
     12867 MEMB     104      DOPC     H3S      HAL2     0.900000E-01   1.00800           0
     12868 MEMB     104      DOPC     C24      CTL2    -0.180000       12.0110           0
     12869 MEMB     104      DOPC     H4R      HAL2     0.900000E-01   1.00800           0
     12870 MEMB     104      DOPC     H4S      HAL2     0.900000E-01   1.00800           0
     12871 MEMB     104      DOPC     C25      CTL2    -0.180000       12.0110           0
     12872 MEMB     104      DOPC     H5R      HAL2     0.900000E-01   1.00800           0
     12873 MEMB     104      DOPC     H5S      HAL2     0.900000E-01   1.00800           0
     12874 MEMB     104      DOPC     C26      CTL2    -0.180000       12.0110           0
     12875 MEMB     104      DOPC     H6R      HAL2     0.900000E-01   1.00800           0
     12876 MEMB     104      DOPC     H6S      HAL2     0.900000E-01   1.00800           0
     12877 MEMB     104      DOPC     C27      CTL2    -0.180000       12.0110           0
     12878 MEMB     104      DOPC     H7R      HAL2     0.900000E-01   1.00800           0
     12879 MEMB     104      DOPC     H7S      HAL2     0.900000E-01   1.00800           0
     12880 MEMB     104      DOPC     C28      CTL2    -0.180000       12.0110           0
     12881 MEMB     104      DOPC     H8R      HAL2     0.900000E-01   1.00800           0
     12882 MEMB     104      DOPC     H8S      HAL2     0.900000E-01   1.00800           0
     12883 MEMB     104      DOPC     C29      CEL1    -0.150000       12.0110           0
     12884 MEMB     104      DOPC     H9R      HEL1     0.150000       1.00800           0
     12885 MEMB     104      DOPC     C210     CEL1    -0.150000       12.0110           0
     12886 MEMB     104      DOPC     H10R     HEL1     0.150000       1.00800           0
     12887 MEMB     104      DOPC     C211     CTL2    -0.180000       12.0110           0
     12888 MEMB     104      DOPC     H11R     HAL2     0.900000E-01   1.00800           0
     12889 MEMB     104      DOPC     H11S     HAL2     0.900000E-01   1.00800           0
     12890 MEMB     104      DOPC     C212     CTL2    -0.180000       12.0110           0
     12891 MEMB     104      DOPC     H12R     HAL2     0.900000E-01   1.00800           0
     12892 MEMB     104      DOPC     H12S     HAL2     0.900000E-01   1.00800           0
     12893 MEMB     104      DOPC     C213     CTL2    -0.180000       12.0110           0
     12894 MEMB     104      DOPC     H13R     HAL2     0.900000E-01   1.00800           0
     12895 MEMB     104      DOPC     H13S     HAL2     0.900000E-01   1.00800           0
     12896 MEMB     104      DOPC     C214     CTL2    -0.180000       12.0110           0
     12897 MEMB     104      DOPC     H14R     HAL2     0.900000E-01   1.00800           0
     12898 MEMB     104      DOPC     H14S     HAL2     0.900000E-01   1.00800           0
     12899 MEMB     104      DOPC     C215     CTL2    -0.180000       12.0110           0
     12900 MEMB     104      DOPC     H15R     HAL2     0.900000E-01   1.00800           0
     12901 MEMB     104      DOPC     H15S     HAL2     0.900000E-01   1.00800           0
     12902 MEMB     104      DOPC     C216     CTL2    -0.180000       12.0110           0
     12903 MEMB     104      DOPC     H16R     HAL2     0.900000E-01   1.00800           0
     12904 MEMB     104      DOPC     H16S     HAL2     0.900000E-01   1.00800           0
     12905 MEMB     104      DOPC     C217     CTL2    -0.180000       12.0110           0
     12906 MEMB     104      DOPC     H17R     HAL2     0.900000E-01   1.00800           0
     12907 MEMB     104      DOPC     H17S     HAL2     0.900000E-01   1.00800           0
     12908 MEMB     104      DOPC     C218     CTL3    -0.270000       12.0110           0
     12909 MEMB     104      DOPC     H18R     HAL3     0.900000E-01   1.00800           0
     12910 MEMB     104      DOPC     H18S     HAL3     0.900000E-01   1.00800           0
     12911 MEMB     104      DOPC     H18T     HAL3     0.900000E-01   1.00800           0
     12912 MEMB     104      DOPC     C33      CTL2    -0.180000       12.0110           0
     12913 MEMB     104      DOPC     H3X      HAL2     0.900000E-01   1.00800           0
     12914 MEMB     104      DOPC     H3Y      HAL2     0.900000E-01   1.00800           0
     12915 MEMB     104      DOPC     C34      CTL2    -0.180000       12.0110           0
     12916 MEMB     104      DOPC     H4X      HAL2     0.900000E-01   1.00800           0
     12917 MEMB     104      DOPC     H4Y      HAL2     0.900000E-01   1.00800           0
     12918 MEMB     104      DOPC     C35      CTL2    -0.180000       12.0110           0
     12919 MEMB     104      DOPC     H5X      HAL2     0.900000E-01   1.00800           0
     12920 MEMB     104      DOPC     H5Y      HAL2     0.900000E-01   1.00800           0
     12921 MEMB     104      DOPC     C36      CTL2    -0.180000       12.0110           0
     12922 MEMB     104      DOPC     H6X      HAL2     0.900000E-01   1.00800           0
     12923 MEMB     104      DOPC     H6Y      HAL2     0.900000E-01   1.00800           0
     12924 MEMB     104      DOPC     C37      CTL2    -0.180000       12.0110           0
     12925 MEMB     104      DOPC     H7X      HAL2     0.900000E-01   1.00800           0
     12926 MEMB     104      DOPC     H7Y      HAL2     0.900000E-01   1.00800           0
     12927 MEMB     104      DOPC     C38      CTL2    -0.180000       12.0110           0
     12928 MEMB     104      DOPC     H8X      HAL2     0.900000E-01   1.00800           0
     12929 MEMB     104      DOPC     H8Y      HAL2     0.900000E-01   1.00800           0
     12930 MEMB     104      DOPC     C39      CEL1    -0.150000       12.0110           0
     12931 MEMB     104      DOPC     H9X      HEL1     0.150000       1.00800           0
     12932 MEMB     104      DOPC     C310     CEL1    -0.150000       12.0110           0
     12933 MEMB     104      DOPC     H10X     HEL1     0.150000       1.00800           0
     12934 MEMB     104      DOPC     C311     CTL2    -0.180000       12.0110           0
     12935 MEMB     104      DOPC     H11X     HAL2     0.900000E-01   1.00800           0
     12936 MEMB     104      DOPC     H11Y     HAL2     0.900000E-01   1.00800           0
     12937 MEMB     104      DOPC     C312     CTL2    -0.180000       12.0110           0
     12938 MEMB     104      DOPC     H12X     HAL2     0.900000E-01   1.00800           0
     12939 MEMB     104      DOPC     H12Y     HAL2     0.900000E-01   1.00800           0
     12940 MEMB     104      DOPC     C313     CTL2    -0.180000       12.0110           0
     12941 MEMB     104      DOPC     H13X     HAL2     0.900000E-01   1.00800           0
     12942 MEMB     104      DOPC     H13Y     HAL2     0.900000E-01   1.00800           0
     12943 MEMB     104      DOPC     C314     CTL2    -0.180000       12.0110           0
     12944 MEMB     104      DOPC     H14X     HAL2     0.900000E-01   1.00800           0
     12945 MEMB     104      DOPC     H14Y     HAL2     0.900000E-01   1.00800           0
     12946 MEMB     104      DOPC     C315     CTL2    -0.180000       12.0110           0
     12947 MEMB     104      DOPC     H15X     HAL2     0.900000E-01   1.00800           0
     12948 MEMB     104      DOPC     H15Y     HAL2     0.900000E-01   1.00800           0
     12949 MEMB     104      DOPC     C316     CTL2    -0.180000       12.0110           0
     12950 MEMB     104      DOPC     H16X     HAL2     0.900000E-01   1.00800           0
     12951 MEMB     104      DOPC     H16Y     HAL2     0.900000E-01   1.00800           0
     12952 MEMB     104      DOPC     C317     CTL2    -0.180000       12.0110           0
     12953 MEMB     104      DOPC     H17X     HAL2     0.900000E-01   1.00800           0
     12954 MEMB     104      DOPC     H17Y     HAL2     0.900000E-01   1.00800           0
     12955 MEMB     104      DOPC     C318     CTL3    -0.270000       12.0110           0
     12956 MEMB     104      DOPC     H18X     HAL3     0.900000E-01   1.00800           0
     12957 MEMB     104      DOPC     H18Y     HAL3     0.900000E-01   1.00800           0
     12958 MEMB     104      DOPC     H18Z     HAL3     0.900000E-01   1.00800           0
     12959 MEMB     105      DOPC     N        NTL     -0.600000       14.0070           0
     12960 MEMB     105      DOPC     C12      CTL2    -0.100000       12.0110           0
     12961 MEMB     105      DOPC     H12A     HL       0.250000       1.00800           0
     12962 MEMB     105      DOPC     H12B     HL       0.250000       1.00800           0
     12963 MEMB     105      DOPC     C13      CTL5    -0.350000       12.0110           0
     12964 MEMB     105      DOPC     H13A     HL       0.250000       1.00800           0
     12965 MEMB     105      DOPC     H13B     HL       0.250000       1.00800           0
     12966 MEMB     105      DOPC     H13C     HL       0.250000       1.00800           0
     12967 MEMB     105      DOPC     C14      CTL5    -0.350000       12.0110           0
     12968 MEMB     105      DOPC     H14A     HL       0.250000       1.00800           0
     12969 MEMB     105      DOPC     H14B     HL       0.250000       1.00800           0
     12970 MEMB     105      DOPC     H14C     HL       0.250000       1.00800           0
     12971 MEMB     105      DOPC     C15      CTL5    -0.350000       12.0110           0
     12972 MEMB     105      DOPC     H15A     HL       0.250000       1.00800           0
     12973 MEMB     105      DOPC     H15B     HL       0.250000       1.00800           0
     12974 MEMB     105      DOPC     H15C     HL       0.250000       1.00800           0
     12975 MEMB     105      DOPC     C11      CTL2    -0.800000E-01   12.0110           0
     12976 MEMB     105      DOPC     H11A     HAL2     0.900000E-01   1.00800           0
     12977 MEMB     105      DOPC     H11B     HAL2     0.900000E-01   1.00800           0
     12978 MEMB     105      DOPC     P        PL        1.50000       30.9740           0
     12979 MEMB     105      DOPC     O13      O2L     -0.780000       15.9994           0
     12980 MEMB     105      DOPC     O14      O2L     -0.780000       15.9994           0
     12981 MEMB     105      DOPC     O12      OSLP    -0.570000       15.9994           0
     12982 MEMB     105      DOPC     O11      OSLP    -0.570000       15.9994           0
     12983 MEMB     105      DOPC     C1       CTL2    -0.800000E-01   12.0110           0
     12984 MEMB     105      DOPC     HA       HAL2     0.900000E-01   1.00800           0
     12985 MEMB     105      DOPC     HB       HAL2     0.900000E-01   1.00800           0
     12986 MEMB     105      DOPC     C2       CTL1     0.170000       12.0110           0
     12987 MEMB     105      DOPC     HS       HAL1     0.900000E-01   1.00800           0
     12988 MEMB     105      DOPC     O21      OSL     -0.490000       15.9994           0
     12989 MEMB     105      DOPC     C21      CL       0.900000       12.0110           0
     12990 MEMB     105      DOPC     O22      OBL     -0.630000       15.9994           0
     12991 MEMB     105      DOPC     C22      CTL2    -0.220000       12.0110           0
     12992 MEMB     105      DOPC     H2R      HAL2     0.900000E-01   1.00800           0
     12993 MEMB     105      DOPC     H2S      HAL2     0.900000E-01   1.00800           0
     12994 MEMB     105      DOPC     C3       CTL2     0.800000E-01   12.0110           0
     12995 MEMB     105      DOPC     HX       HAL2     0.900000E-01   1.00800           0
     12996 MEMB     105      DOPC     HY       HAL2     0.900000E-01   1.00800           0
     12997 MEMB     105      DOPC     O31      OSL     -0.490000       15.9994           0
     12998 MEMB     105      DOPC     C31      CL       0.900000       12.0110           0
     12999 MEMB     105      DOPC     O32      OBL     -0.630000       15.9994           0
     13000 MEMB     105      DOPC     C32      CTL2    -0.220000       12.0110           0
     13001 MEMB     105      DOPC     H2X      HAL2     0.900000E-01   1.00800           0
     13002 MEMB     105      DOPC     H2Y      HAL2     0.900000E-01   1.00800           0
     13003 MEMB     105      DOPC     C23      CTL2    -0.180000       12.0110           0
     13004 MEMB     105      DOPC     H3R      HAL2     0.900000E-01   1.00800           0
     13005 MEMB     105      DOPC     H3S      HAL2     0.900000E-01   1.00800           0
     13006 MEMB     105      DOPC     C24      CTL2    -0.180000       12.0110           0
     13007 MEMB     105      DOPC     H4R      HAL2     0.900000E-01   1.00800           0
     13008 MEMB     105      DOPC     H4S      HAL2     0.900000E-01   1.00800           0
     13009 MEMB     105      DOPC     C25      CTL2    -0.180000       12.0110           0
     13010 MEMB     105      DOPC     H5R      HAL2     0.900000E-01   1.00800           0
     13011 MEMB     105      DOPC     H5S      HAL2     0.900000E-01   1.00800           0
     13012 MEMB     105      DOPC     C26      CTL2    -0.180000       12.0110           0
     13013 MEMB     105      DOPC     H6R      HAL2     0.900000E-01   1.00800           0
     13014 MEMB     105      DOPC     H6S      HAL2     0.900000E-01   1.00800           0
     13015 MEMB     105      DOPC     C27      CTL2    -0.180000       12.0110           0
     13016 MEMB     105      DOPC     H7R      HAL2     0.900000E-01   1.00800           0
     13017 MEMB     105      DOPC     H7S      HAL2     0.900000E-01   1.00800           0
     13018 MEMB     105      DOPC     C28      CTL2    -0.180000       12.0110           0
     13019 MEMB     105      DOPC     H8R      HAL2     0.900000E-01   1.00800           0
     13020 MEMB     105      DOPC     H8S      HAL2     0.900000E-01   1.00800           0
     13021 MEMB     105      DOPC     C29      CEL1    -0.150000       12.0110           0
     13022 MEMB     105      DOPC     H9R      HEL1     0.150000       1.00800           0
     13023 MEMB     105      DOPC     C210     CEL1    -0.150000       12.0110           0
     13024 MEMB     105      DOPC     H10R     HEL1     0.150000       1.00800           0
     13025 MEMB     105      DOPC     C211     CTL2    -0.180000       12.0110           0
     13026 MEMB     105      DOPC     H11R     HAL2     0.900000E-01   1.00800           0
     13027 MEMB     105      DOPC     H11S     HAL2     0.900000E-01   1.00800           0
     13028 MEMB     105      DOPC     C212     CTL2    -0.180000       12.0110           0
     13029 MEMB     105      DOPC     H12R     HAL2     0.900000E-01   1.00800           0
     13030 MEMB     105      DOPC     H12S     HAL2     0.900000E-01   1.00800           0
     13031 MEMB     105      DOPC     C213     CTL2    -0.180000       12.0110           0
     13032 MEMB     105      DOPC     H13R     HAL2     0.900000E-01   1.00800           0
     13033 MEMB     105      DOPC     H13S     HAL2     0.900000E-01   1.00800           0
     13034 MEMB     105      DOPC     C214     CTL2    -0.180000       12.0110           0
     13035 MEMB     105      DOPC     H14R     HAL2     0.900000E-01   1.00800           0
     13036 MEMB     105      DOPC     H14S     HAL2     0.900000E-01   1.00800           0
     13037 MEMB     105      DOPC     C215     CTL2    -0.180000       12.0110           0
     13038 MEMB     105      DOPC     H15R     HAL2     0.900000E-01   1.00800           0
     13039 MEMB     105      DOPC     H15S     HAL2     0.900000E-01   1.00800           0
     13040 MEMB     105      DOPC     C216     CTL2    -0.180000       12.0110           0
     13041 MEMB     105      DOPC     H16R     HAL2     0.900000E-01   1.00800           0
     13042 MEMB     105      DOPC     H16S     HAL2     0.900000E-01   1.00800           0
     13043 MEMB     105      DOPC     C217     CTL2    -0.180000       12.0110           0
     13044 MEMB     105      DOPC     H17R     HAL2     0.900000E-01   1.00800           0
     13045 MEMB     105      DOPC     H17S     HAL2     0.900000E-01   1.00800           0
     13046 MEMB     105      DOPC     C218     CTL3    -0.270000       12.0110           0
     13047 MEMB     105      DOPC     H18R     HAL3     0.900000E-01   1.00800           0
     13048 MEMB     105      DOPC     H18S     HAL3     0.900000E-01   1.00800           0
     13049 MEMB     105      DOPC     H18T     HAL3     0.900000E-01   1.00800           0
     13050 MEMB     105      DOPC     C33      CTL2    -0.180000       12.0110           0
     13051 MEMB     105      DOPC     H3X      HAL2     0.900000E-01   1.00800           0
     13052 MEMB     105      DOPC     H3Y      HAL2     0.900000E-01   1.00800           0
     13053 MEMB     105      DOPC     C34      CTL2    -0.180000       12.0110           0
     13054 MEMB     105      DOPC     H4X      HAL2     0.900000E-01   1.00800           0
     13055 MEMB     105      DOPC     H4Y      HAL2     0.900000E-01   1.00800           0
     13056 MEMB     105      DOPC     C35      CTL2    -0.180000       12.0110           0
     13057 MEMB     105      DOPC     H5X      HAL2     0.900000E-01   1.00800           0
     13058 MEMB     105      DOPC     H5Y      HAL2     0.900000E-01   1.00800           0
     13059 MEMB     105      DOPC     C36      CTL2    -0.180000       12.0110           0
     13060 MEMB     105      DOPC     H6X      HAL2     0.900000E-01   1.00800           0
     13061 MEMB     105      DOPC     H6Y      HAL2     0.900000E-01   1.00800           0
     13062 MEMB     105      DOPC     C37      CTL2    -0.180000       12.0110           0
     13063 MEMB     105      DOPC     H7X      HAL2     0.900000E-01   1.00800           0
     13064 MEMB     105      DOPC     H7Y      HAL2     0.900000E-01   1.00800           0
     13065 MEMB     105      DOPC     C38      CTL2    -0.180000       12.0110           0
     13066 MEMB     105      DOPC     H8X      HAL2     0.900000E-01   1.00800           0
     13067 MEMB     105      DOPC     H8Y      HAL2     0.900000E-01   1.00800           0
     13068 MEMB     105      DOPC     C39      CEL1    -0.150000       12.0110           0
     13069 MEMB     105      DOPC     H9X      HEL1     0.150000       1.00800           0
     13070 MEMB     105      DOPC     C310     CEL1    -0.150000       12.0110           0
     13071 MEMB     105      DOPC     H10X     HEL1     0.150000       1.00800           0
     13072 MEMB     105      DOPC     C311     CTL2    -0.180000       12.0110           0
     13073 MEMB     105      DOPC     H11X     HAL2     0.900000E-01   1.00800           0
     13074 MEMB     105      DOPC     H11Y     HAL2     0.900000E-01   1.00800           0
     13075 MEMB     105      DOPC     C312     CTL2    -0.180000       12.0110           0
     13076 MEMB     105      DOPC     H12X     HAL2     0.900000E-01   1.00800           0
     13077 MEMB     105      DOPC     H12Y     HAL2     0.900000E-01   1.00800           0
     13078 MEMB     105      DOPC     C313     CTL2    -0.180000       12.0110           0
     13079 MEMB     105      DOPC     H13X     HAL2     0.900000E-01   1.00800           0
     13080 MEMB     105      DOPC     H13Y     HAL2     0.900000E-01   1.00800           0
     13081 MEMB     105      DOPC     C314     CTL2    -0.180000       12.0110           0
     13082 MEMB     105      DOPC     H14X     HAL2     0.900000E-01   1.00800           0
     13083 MEMB     105      DOPC     H14Y     HAL2     0.900000E-01   1.00800           0
     13084 MEMB     105      DOPC     C315     CTL2    -0.180000       12.0110           0
     13085 MEMB     105      DOPC     H15X     HAL2     0.900000E-01   1.00800           0
     13086 MEMB     105      DOPC     H15Y     HAL2     0.900000E-01   1.00800           0
     13087 MEMB     105      DOPC     C316     CTL2    -0.180000       12.0110           0
     13088 MEMB     105      DOPC     H16X     HAL2     0.900000E-01   1.00800           0
     13089 MEMB     105      DOPC     H16Y     HAL2     0.900000E-01   1.00800           0
     13090 MEMB     105      DOPC     C317     CTL2    -0.180000       12.0110           0
     13091 MEMB     105      DOPC     H17X     HAL2     0.900000E-01   1.00800           0
     13092 MEMB     105      DOPC     H17Y     HAL2     0.900000E-01   1.00800           0
     13093 MEMB     105      DOPC     C318     CTL3    -0.270000       12.0110           0
     13094 MEMB     105      DOPC     H18X     HAL3     0.900000E-01   1.00800           0
     13095 MEMB     105      DOPC     H18Y     HAL3     0.900000E-01   1.00800           0
     13096 MEMB     105      DOPC     H18Z     HAL3     0.900000E-01   1.00800           0
     13097 MEMB     106      DOPE     N        NH3L    -0.300000       14.0070           0
     13098 MEMB     106      DOPE     HN1      HCL      0.330000       1.00800           0
     13099 MEMB     106      DOPE     HN2      HCL      0.330000       1.00800           0
     13100 MEMB     106      DOPE     HN3      HCL      0.330000       1.00800           0
     13101 MEMB     106      DOPE     C12      CTL2     0.130000       12.0110           0
     13102 MEMB     106      DOPE     H12A     HAL2     0.900000E-01   1.00800           0
     13103 MEMB     106      DOPE     H12B     HAL2     0.900000E-01   1.00800           0
     13104 MEMB     106      DOPE     C11      CTL2    -0.800000E-01   12.0110           0
     13105 MEMB     106      DOPE     H11A     HAL2     0.900000E-01   1.00800           0
     13106 MEMB     106      DOPE     H11B     HAL2     0.900000E-01   1.00800           0
     13107 MEMB     106      DOPE     P        PL        1.50000       30.9740           0
     13108 MEMB     106      DOPE     O13      O2L     -0.780000       15.9994           0
     13109 MEMB     106      DOPE     O14      O2L     -0.780000       15.9994           0
     13110 MEMB     106      DOPE     O11      OSLP    -0.570000       15.9994           0
     13111 MEMB     106      DOPE     O12      OSLP    -0.570000       15.9994           0
     13112 MEMB     106      DOPE     C1       CTL2    -0.800000E-01   12.0110           0
     13113 MEMB     106      DOPE     HA       HAL2     0.900000E-01   1.00800           0
     13114 MEMB     106      DOPE     HB       HAL2     0.900000E-01   1.00800           0
     13115 MEMB     106      DOPE     C2       CTL1     0.170000       12.0110           0
     13116 MEMB     106      DOPE     HS       HAL1     0.900000E-01   1.00800           0
     13117 MEMB     106      DOPE     O21      OSL     -0.490000       15.9994           0
     13118 MEMB     106      DOPE     C21      CL       0.900000       12.0110           0
     13119 MEMB     106      DOPE     O22      OBL     -0.630000       15.9994           0
     13120 MEMB     106      DOPE     C22      CTL2    -0.220000       12.0110           0
     13121 MEMB     106      DOPE     H2R      HAL2     0.900000E-01   1.00800           0
     13122 MEMB     106      DOPE     H2S      HAL2     0.900000E-01   1.00800           0
     13123 MEMB     106      DOPE     C3       CTL2     0.800000E-01   12.0110           0
     13124 MEMB     106      DOPE     HX       HAL2     0.900000E-01   1.00800           0
     13125 MEMB     106      DOPE     HY       HAL2     0.900000E-01   1.00800           0
     13126 MEMB     106      DOPE     O31      OSL     -0.490000       15.9994           0
     13127 MEMB     106      DOPE     C31      CL       0.900000       12.0110           0
     13128 MEMB     106      DOPE     O32      OBL     -0.630000       15.9994           0
     13129 MEMB     106      DOPE     C32      CTL2    -0.220000       12.0110           0
     13130 MEMB     106      DOPE     H2X      HAL2     0.900000E-01   1.00800           0
     13131 MEMB     106      DOPE     H2Y      HAL2     0.900000E-01   1.00800           0
     13132 MEMB     106      DOPE     C23      CTL2    -0.180000       12.0110           0
     13133 MEMB     106      DOPE     H3R      HAL2     0.900000E-01   1.00800           0
     13134 MEMB     106      DOPE     H3S      HAL2     0.900000E-01   1.00800           0
     13135 MEMB     106      DOPE     C24      CTL2    -0.180000       12.0110           0
     13136 MEMB     106      DOPE     H4R      HAL2     0.900000E-01   1.00800           0
     13137 MEMB     106      DOPE     H4S      HAL2     0.900000E-01   1.00800           0
     13138 MEMB     106      DOPE     C25      CTL2    -0.180000       12.0110           0
     13139 MEMB     106      DOPE     H5R      HAL2     0.900000E-01   1.00800           0
     13140 MEMB     106      DOPE     H5S      HAL2     0.900000E-01   1.00800           0
     13141 MEMB     106      DOPE     C26      CTL2    -0.180000       12.0110           0
     13142 MEMB     106      DOPE     H6R      HAL2     0.900000E-01   1.00800           0
     13143 MEMB     106      DOPE     H6S      HAL2     0.900000E-01   1.00800           0
     13144 MEMB     106      DOPE     C27      CTL2    -0.180000       12.0110           0
     13145 MEMB     106      DOPE     H7R      HAL2     0.900000E-01   1.00800           0
     13146 MEMB     106      DOPE     H7S      HAL2     0.900000E-01   1.00800           0
     13147 MEMB     106      DOPE     C28      CTL2    -0.180000       12.0110           0
     13148 MEMB     106      DOPE     H8R      HAL2     0.900000E-01   1.00800           0
     13149 MEMB     106      DOPE     H8S      HAL2     0.900000E-01   1.00800           0
     13150 MEMB     106      DOPE     C29      CEL1    -0.150000       12.0110           0
     13151 MEMB     106      DOPE     H9R      HEL1     0.150000       1.00800           0
     13152 MEMB     106      DOPE     C210     CEL1    -0.150000       12.0110           0
     13153 MEMB     106      DOPE     H10R     HEL1     0.150000       1.00800           0
     13154 MEMB     106      DOPE     C211     CTL2    -0.180000       12.0110           0
     13155 MEMB     106      DOPE     H11R     HAL2     0.900000E-01   1.00800           0
     13156 MEMB     106      DOPE     H11S     HAL2     0.900000E-01   1.00800           0
     13157 MEMB     106      DOPE     C212     CTL2    -0.180000       12.0110           0
     13158 MEMB     106      DOPE     H12R     HAL2     0.900000E-01   1.00800           0
     13159 MEMB     106      DOPE     H12S     HAL2     0.900000E-01   1.00800           0
     13160 MEMB     106      DOPE     C213     CTL2    -0.180000       12.0110           0
     13161 MEMB     106      DOPE     H13R     HAL2     0.900000E-01   1.00800           0
     13162 MEMB     106      DOPE     H13S     HAL2     0.900000E-01   1.00800           0
     13163 MEMB     106      DOPE     C214     CTL2    -0.180000       12.0110           0
     13164 MEMB     106      DOPE     H14R     HAL2     0.900000E-01   1.00800           0
     13165 MEMB     106      DOPE     H14S     HAL2     0.900000E-01   1.00800           0
     13166 MEMB     106      DOPE     C215     CTL2    -0.180000       12.0110           0
     13167 MEMB     106      DOPE     H15R     HAL2     0.900000E-01   1.00800           0
     13168 MEMB     106      DOPE     H15S     HAL2     0.900000E-01   1.00800           0
     13169 MEMB     106      DOPE     C216     CTL2    -0.180000       12.0110           0
     13170 MEMB     106      DOPE     H16R     HAL2     0.900000E-01   1.00800           0
     13171 MEMB     106      DOPE     H16S     HAL2     0.900000E-01   1.00800           0
     13172 MEMB     106      DOPE     C217     CTL2    -0.180000       12.0110           0
     13173 MEMB     106      DOPE     H17R     HAL2     0.900000E-01   1.00800           0
     13174 MEMB     106      DOPE     H17S     HAL2     0.900000E-01   1.00800           0
     13175 MEMB     106      DOPE     C218     CTL3    -0.270000       12.0110           0
     13176 MEMB     106      DOPE     H18R     HAL3     0.900000E-01   1.00800           0
     13177 MEMB     106      DOPE     H18S     HAL3     0.900000E-01   1.00800           0
     13178 MEMB     106      DOPE     H18T     HAL3     0.900000E-01   1.00800           0
     13179 MEMB     106      DOPE     C33      CTL2    -0.180000       12.0110           0
     13180 MEMB     106      DOPE     H3X      HAL2     0.900000E-01   1.00800           0
     13181 MEMB     106      DOPE     H3Y      HAL2     0.900000E-01   1.00800           0
     13182 MEMB     106      DOPE     C34      CTL2    -0.180000       12.0110           0
     13183 MEMB     106      DOPE     H4X      HAL2     0.900000E-01   1.00800           0
     13184 MEMB     106      DOPE     H4Y      HAL2     0.900000E-01   1.00800           0
     13185 MEMB     106      DOPE     C35      CTL2    -0.180000       12.0110           0
     13186 MEMB     106      DOPE     H5X      HAL2     0.900000E-01   1.00800           0
     13187 MEMB     106      DOPE     H5Y      HAL2     0.900000E-01   1.00800           0
     13188 MEMB     106      DOPE     C36      CTL2    -0.180000       12.0110           0
     13189 MEMB     106      DOPE     H6X      HAL2     0.900000E-01   1.00800           0
     13190 MEMB     106      DOPE     H6Y      HAL2     0.900000E-01   1.00800           0
     13191 MEMB     106      DOPE     C37      CTL2    -0.180000       12.0110           0
     13192 MEMB     106      DOPE     H7X      HAL2     0.900000E-01   1.00800           0
     13193 MEMB     106      DOPE     H7Y      HAL2     0.900000E-01   1.00800           0
     13194 MEMB     106      DOPE     C38      CTL2    -0.180000       12.0110           0
     13195 MEMB     106      DOPE     H8X      HAL2     0.900000E-01   1.00800           0
     13196 MEMB     106      DOPE     H8Y      HAL2     0.900000E-01   1.00800           0
     13197 MEMB     106      DOPE     C39      CEL1    -0.150000       12.0110           0
     13198 MEMB     106      DOPE     H9X      HEL1     0.150000       1.00800           0
     13199 MEMB     106      DOPE     C310     CEL1    -0.150000       12.0110           0
     13200 MEMB     106      DOPE     H10X     HEL1     0.150000       1.00800           0
     13201 MEMB     106      DOPE     C311     CTL2    -0.180000       12.0110           0
     13202 MEMB     106      DOPE     H11X     HAL2     0.900000E-01   1.00800           0
     13203 MEMB     106      DOPE     H11Y     HAL2     0.900000E-01   1.00800           0
     13204 MEMB     106      DOPE     C312     CTL2    -0.180000       12.0110           0
     13205 MEMB     106      DOPE     H12X     HAL2     0.900000E-01   1.00800           0
     13206 MEMB     106      DOPE     H12Y     HAL2     0.900000E-01   1.00800           0
     13207 MEMB     106      DOPE     C313     CTL2    -0.180000       12.0110           0
     13208 MEMB     106      DOPE     H13X     HAL2     0.900000E-01   1.00800           0
     13209 MEMB     106      DOPE     H13Y     HAL2     0.900000E-01   1.00800           0
     13210 MEMB     106      DOPE     C314     CTL2    -0.180000       12.0110           0
     13211 MEMB     106      DOPE     H14X     HAL2     0.900000E-01   1.00800           0
     13212 MEMB     106      DOPE     H14Y     HAL2     0.900000E-01   1.00800           0
     13213 MEMB     106      DOPE     C315     CTL2    -0.180000       12.0110           0
     13214 MEMB     106      DOPE     H15X     HAL2     0.900000E-01   1.00800           0
     13215 MEMB     106      DOPE     H15Y     HAL2     0.900000E-01   1.00800           0
     13216 MEMB     106      DOPE     C316     CTL2    -0.180000       12.0110           0
     13217 MEMB     106      DOPE     H16X     HAL2     0.900000E-01   1.00800           0
     13218 MEMB     106      DOPE     H16Y     HAL2     0.900000E-01   1.00800           0
     13219 MEMB     106      DOPE     C317     CTL2    -0.180000       12.0110           0
     13220 MEMB     106      DOPE     H17X     HAL2     0.900000E-01   1.00800           0
     13221 MEMB     106      DOPE     H17Y     HAL2     0.900000E-01   1.00800           0
     13222 MEMB     106      DOPE     C318     CTL3    -0.270000       12.0110           0
     13223 MEMB     106      DOPE     H18X     HAL3     0.900000E-01   1.00800           0
     13224 MEMB     106      DOPE     H18Y     HAL3     0.900000E-01   1.00800           0
     13225 MEMB     106      DOPE     H18Z     HAL3     0.900000E-01   1.00800           0
     13226 MEMB     107      DOPE     N        NH3L    -0.300000       14.0070           0
     13227 MEMB     107      DOPE     HN1      HCL      0.330000       1.00800           0
     13228 MEMB     107      DOPE     HN2      HCL      0.330000       1.00800           0
     13229 MEMB     107      DOPE     HN3      HCL      0.330000       1.00800           0
     13230 MEMB     107      DOPE     C12      CTL2     0.130000       12.0110           0
     13231 MEMB     107      DOPE     H12A     HAL2     0.900000E-01   1.00800           0
     13232 MEMB     107      DOPE     H12B     HAL2     0.900000E-01   1.00800           0
     13233 MEMB     107      DOPE     C11      CTL2    -0.800000E-01   12.0110           0
     13234 MEMB     107      DOPE     H11A     HAL2     0.900000E-01   1.00800           0
     13235 MEMB     107      DOPE     H11B     HAL2     0.900000E-01   1.00800           0
     13236 MEMB     107      DOPE     P        PL        1.50000       30.9740           0
     13237 MEMB     107      DOPE     O13      O2L     -0.780000       15.9994           0
     13238 MEMB     107      DOPE     O14      O2L     -0.780000       15.9994           0
     13239 MEMB     107      DOPE     O11      OSLP    -0.570000       15.9994           0
     13240 MEMB     107      DOPE     O12      OSLP    -0.570000       15.9994           0
     13241 MEMB     107      DOPE     C1       CTL2    -0.800000E-01   12.0110           0
     13242 MEMB     107      DOPE     HA       HAL2     0.900000E-01   1.00800           0
     13243 MEMB     107      DOPE     HB       HAL2     0.900000E-01   1.00800           0
     13244 MEMB     107      DOPE     C2       CTL1     0.170000       12.0110           0
     13245 MEMB     107      DOPE     HS       HAL1     0.900000E-01   1.00800           0
     13246 MEMB     107      DOPE     O21      OSL     -0.490000       15.9994           0
     13247 MEMB     107      DOPE     C21      CL       0.900000       12.0110           0
     13248 MEMB     107      DOPE     O22      OBL     -0.630000       15.9994           0
     13249 MEMB     107      DOPE     C22      CTL2    -0.220000       12.0110           0
     13250 MEMB     107      DOPE     H2R      HAL2     0.900000E-01   1.00800           0
     13251 MEMB     107      DOPE     H2S      HAL2     0.900000E-01   1.00800           0
     13252 MEMB     107      DOPE     C3       CTL2     0.800000E-01   12.0110           0
     13253 MEMB     107      DOPE     HX       HAL2     0.900000E-01   1.00800           0
     13254 MEMB     107      DOPE     HY       HAL2     0.900000E-01   1.00800           0
     13255 MEMB     107      DOPE     O31      OSL     -0.490000       15.9994           0
     13256 MEMB     107      DOPE     C31      CL       0.900000       12.0110           0
     13257 MEMB     107      DOPE     O32      OBL     -0.630000       15.9994           0
     13258 MEMB     107      DOPE     C32      CTL2    -0.220000       12.0110           0
     13259 MEMB     107      DOPE     H2X      HAL2     0.900000E-01   1.00800           0
     13260 MEMB     107      DOPE     H2Y      HAL2     0.900000E-01   1.00800           0
     13261 MEMB     107      DOPE     C23      CTL2    -0.180000       12.0110           0
     13262 MEMB     107      DOPE     H3R      HAL2     0.900000E-01   1.00800           0
     13263 MEMB     107      DOPE     H3S      HAL2     0.900000E-01   1.00800           0
     13264 MEMB     107      DOPE     C24      CTL2    -0.180000       12.0110           0
     13265 MEMB     107      DOPE     H4R      HAL2     0.900000E-01   1.00800           0
     13266 MEMB     107      DOPE     H4S      HAL2     0.900000E-01   1.00800           0
     13267 MEMB     107      DOPE     C25      CTL2    -0.180000       12.0110           0
     13268 MEMB     107      DOPE     H5R      HAL2     0.900000E-01   1.00800           0
     13269 MEMB     107      DOPE     H5S      HAL2     0.900000E-01   1.00800           0
     13270 MEMB     107      DOPE     C26      CTL2    -0.180000       12.0110           0
     13271 MEMB     107      DOPE     H6R      HAL2     0.900000E-01   1.00800           0
     13272 MEMB     107      DOPE     H6S      HAL2     0.900000E-01   1.00800           0
     13273 MEMB     107      DOPE     C27      CTL2    -0.180000       12.0110           0
     13274 MEMB     107      DOPE     H7R      HAL2     0.900000E-01   1.00800           0
     13275 MEMB     107      DOPE     H7S      HAL2     0.900000E-01   1.00800           0
     13276 MEMB     107      DOPE     C28      CTL2    -0.180000       12.0110           0
     13277 MEMB     107      DOPE     H8R      HAL2     0.900000E-01   1.00800           0
     13278 MEMB     107      DOPE     H8S      HAL2     0.900000E-01   1.00800           0
     13279 MEMB     107      DOPE     C29      CEL1    -0.150000       12.0110           0
     13280 MEMB     107      DOPE     H9R      HEL1     0.150000       1.00800           0
     13281 MEMB     107      DOPE     C210     CEL1    -0.150000       12.0110           0
     13282 MEMB     107      DOPE     H10R     HEL1     0.150000       1.00800           0
     13283 MEMB     107      DOPE     C211     CTL2    -0.180000       12.0110           0
     13284 MEMB     107      DOPE     H11R     HAL2     0.900000E-01   1.00800           0
     13285 MEMB     107      DOPE     H11S     HAL2     0.900000E-01   1.00800           0
     13286 MEMB     107      DOPE     C212     CTL2    -0.180000       12.0110           0
     13287 MEMB     107      DOPE     H12R     HAL2     0.900000E-01   1.00800           0
     13288 MEMB     107      DOPE     H12S     HAL2     0.900000E-01   1.00800           0
     13289 MEMB     107      DOPE     C213     CTL2    -0.180000       12.0110           0
     13290 MEMB     107      DOPE     H13R     HAL2     0.900000E-01   1.00800           0
     13291 MEMB     107      DOPE     H13S     HAL2     0.900000E-01   1.00800           0
     13292 MEMB     107      DOPE     C214     CTL2    -0.180000       12.0110           0
     13293 MEMB     107      DOPE     H14R     HAL2     0.900000E-01   1.00800           0
     13294 MEMB     107      DOPE     H14S     HAL2     0.900000E-01   1.00800           0
     13295 MEMB     107      DOPE     C215     CTL2    -0.180000       12.0110           0
     13296 MEMB     107      DOPE     H15R     HAL2     0.900000E-01   1.00800           0
     13297 MEMB     107      DOPE     H15S     HAL2     0.900000E-01   1.00800           0
     13298 MEMB     107      DOPE     C216     CTL2    -0.180000       12.0110           0
     13299 MEMB     107      DOPE     H16R     HAL2     0.900000E-01   1.00800           0
     13300 MEMB     107      DOPE     H16S     HAL2     0.900000E-01   1.00800           0
     13301 MEMB     107      DOPE     C217     CTL2    -0.180000       12.0110           0
     13302 MEMB     107      DOPE     H17R     HAL2     0.900000E-01   1.00800           0
     13303 MEMB     107      DOPE     H17S     HAL2     0.900000E-01   1.00800           0
     13304 MEMB     107      DOPE     C218     CTL3    -0.270000       12.0110           0
     13305 MEMB     107      DOPE     H18R     HAL3     0.900000E-01   1.00800           0
     13306 MEMB     107      DOPE     H18S     HAL3     0.900000E-01   1.00800           0
     13307 MEMB     107      DOPE     H18T     HAL3     0.900000E-01   1.00800           0
     13308 MEMB     107      DOPE     C33      CTL2    -0.180000       12.0110           0
     13309 MEMB     107      DOPE     H3X      HAL2     0.900000E-01   1.00800           0
     13310 MEMB     107      DOPE     H3Y      HAL2     0.900000E-01   1.00800           0
     13311 MEMB     107      DOPE     C34      CTL2    -0.180000       12.0110           0
     13312 MEMB     107      DOPE     H4X      HAL2     0.900000E-01   1.00800           0
     13313 MEMB     107      DOPE     H4Y      HAL2     0.900000E-01   1.00800           0
     13314 MEMB     107      DOPE     C35      CTL2    -0.180000       12.0110           0
     13315 MEMB     107      DOPE     H5X      HAL2     0.900000E-01   1.00800           0
     13316 MEMB     107      DOPE     H5Y      HAL2     0.900000E-01   1.00800           0
     13317 MEMB     107      DOPE     C36      CTL2    -0.180000       12.0110           0
     13318 MEMB     107      DOPE     H6X      HAL2     0.900000E-01   1.00800           0
     13319 MEMB     107      DOPE     H6Y      HAL2     0.900000E-01   1.00800           0
     13320 MEMB     107      DOPE     C37      CTL2    -0.180000       12.0110           0
     13321 MEMB     107      DOPE     H7X      HAL2     0.900000E-01   1.00800           0
     13322 MEMB     107      DOPE     H7Y      HAL2     0.900000E-01   1.00800           0
     13323 MEMB     107      DOPE     C38      CTL2    -0.180000       12.0110           0
     13324 MEMB     107      DOPE     H8X      HAL2     0.900000E-01   1.00800           0
     13325 MEMB     107      DOPE     H8Y      HAL2     0.900000E-01   1.00800           0
     13326 MEMB     107      DOPE     C39      CEL1    -0.150000       12.0110           0
     13327 MEMB     107      DOPE     H9X      HEL1     0.150000       1.00800           0
     13328 MEMB     107      DOPE     C310     CEL1    -0.150000       12.0110           0
     13329 MEMB     107      DOPE     H10X     HEL1     0.150000       1.00800           0
     13330 MEMB     107      DOPE     C311     CTL2    -0.180000       12.0110           0
     13331 MEMB     107      DOPE     H11X     HAL2     0.900000E-01   1.00800           0
     13332 MEMB     107      DOPE     H11Y     HAL2     0.900000E-01   1.00800           0
     13333 MEMB     107      DOPE     C312     CTL2    -0.180000       12.0110           0
     13334 MEMB     107      DOPE     H12X     HAL2     0.900000E-01   1.00800           0
     13335 MEMB     107      DOPE     H12Y     HAL2     0.900000E-01   1.00800           0
     13336 MEMB     107      DOPE     C313     CTL2    -0.180000       12.0110           0
     13337 MEMB     107      DOPE     H13X     HAL2     0.900000E-01   1.00800           0
     13338 MEMB     107      DOPE     H13Y     HAL2     0.900000E-01   1.00800           0
     13339 MEMB     107      DOPE     C314     CTL2    -0.180000       12.0110           0
     13340 MEMB     107      DOPE     H14X     HAL2     0.900000E-01   1.00800           0
     13341 MEMB     107      DOPE     H14Y     HAL2     0.900000E-01   1.00800           0
     13342 MEMB     107      DOPE     C315     CTL2    -0.180000       12.0110           0
     13343 MEMB     107      DOPE     H15X     HAL2     0.900000E-01   1.00800           0
     13344 MEMB     107      DOPE     H15Y     HAL2     0.900000E-01   1.00800           0
     13345 MEMB     107      DOPE     C316     CTL2    -0.180000       12.0110           0
     13346 MEMB     107      DOPE     H16X     HAL2     0.900000E-01   1.00800           0
     13347 MEMB     107      DOPE     H16Y     HAL2     0.900000E-01   1.00800           0
     13348 MEMB     107      DOPE     C317     CTL2    -0.180000       12.0110           0
     13349 MEMB     107      DOPE     H17X     HAL2     0.900000E-01   1.00800           0
     13350 MEMB     107      DOPE     H17Y     HAL2     0.900000E-01   1.00800           0
     13351 MEMB     107      DOPE     C318     CTL3    -0.270000       12.0110           0
     13352 MEMB     107      DOPE     H18X     HAL3     0.900000E-01   1.00800           0
     13353 MEMB     107      DOPE     H18Y     HAL3     0.900000E-01   1.00800           0
     13354 MEMB     107      DOPE     H18Z     HAL3     0.900000E-01   1.00800           0
     13355 MEMB     108      23SM     N        NTL     -0.600000       14.0070           0
     13356 MEMB     108      23SM     C15      CTL5    -0.350000       12.0110           0
     13357 MEMB     108      23SM     H15A     HL       0.250000       1.00800           0
     13358 MEMB     108      23SM     H15B     HL       0.250000       1.00800           0
     13359 MEMB     108      23SM     H15C     HL       0.250000       1.00800           0
     13360 MEMB     108      23SM     C14      CTL5    -0.350000       12.0110           0
     13361 MEMB     108      23SM     H14A     HL       0.250000       1.00800           0
     13362 MEMB     108      23SM     H14B     HL       0.250000       1.00800           0
     13363 MEMB     108      23SM     H14C     HL       0.250000       1.00800           0
     13364 MEMB     108      23SM     C13      CTL5    -0.350000       12.0110           0
     13365 MEMB     108      23SM     H13A     HL       0.250000       1.00800           0
     13366 MEMB     108      23SM     H13B     HL       0.250000       1.00800           0
     13367 MEMB     108      23SM     H13C     HL       0.250000       1.00800           0
     13368 MEMB     108      23SM     C12      CTL2    -0.100000       12.0110           0
     13369 MEMB     108      23SM     H12A     HL       0.250000       1.00800           0
     13370 MEMB     108      23SM     H12B     HL       0.250000       1.00800           0
     13371 MEMB     108      23SM     C11      CTL2    -0.800000E-01   12.0110           0
     13372 MEMB     108      23SM     H11A     HAL2     0.900000E-01   1.00800           0
     13373 MEMB     108      23SM     H11B     HAL2     0.900000E-01   1.00800           0
     13374 MEMB     108      23SM     P        PL        1.50000       30.9740           0
     13375 MEMB     108      23SM     O13      O2L     -0.780000       15.9994           0
     13376 MEMB     108      23SM     O14      O2L     -0.780000       15.9994           0
     13377 MEMB     108      23SM     O11      OSLP    -0.570000       15.9994           0
     13378 MEMB     108      23SM     O12      OSLP    -0.570000       15.9994           0
     13379 MEMB     108      23SM     C1S      CTL2    -0.800000E-01   12.0110           0
     13380 MEMB     108      23SM     H1S      HAL2     0.900000E-01   1.00800           0
     13381 MEMB     108      23SM     H1T      HAL2     0.900000E-01   1.00800           0
     13382 MEMB     108      23SM     NF       NHL     -0.700000       14.0070           0
     13383 MEMB     108      23SM     HNF      H        0.350000       1.00800           0
     13384 MEMB     108      23SM     C2S      CTL1     0.300000       12.0110           0
     13385 MEMB     108      23SM     H2S      HAL1     0.500000E-01   1.00800           0
     13386 MEMB     108      23SM     C3S      CTO1     0.500000       12.0110           0
     13387 MEMB     108      23SM     H3S      HAL1    -0.110000       1.00800           0
     13388 MEMB     108      23SM     O3       OHL     -0.690000       15.9994           0
     13389 MEMB     108      23SM     HO3      HOL      0.300000       1.00800           0
     13390 MEMB     108      23SM     C4S      CEL3    -0.150000       12.0110           0
     13391 MEMB     108      23SM     H4S      HEL1     0.150000       1.00800           0
     13392 MEMB     108      23SM     C5S      CEL3    -0.150000       12.0110           0
     13393 MEMB     108      23SM     H5S      HEL1     0.150000       1.00800           0
     13394 MEMB     108      23SM     C6S      CTL2    -0.180000       12.0110           0
     13395 MEMB     108      23SM     H6S      HAL2     0.900000E-01   1.00800           0
     13396 MEMB     108      23SM     H6T      HAL2     0.900000E-01   1.00800           0
     13397 MEMB     108      23SM     C7S      CTL2    -0.180000       12.0110           0
     13398 MEMB     108      23SM     H7S      HAL2     0.900000E-01   1.00800           0
     13399 MEMB     108      23SM     H7T      HAL2     0.900000E-01   1.00800           0
     13400 MEMB     108      23SM     C8S      CTL2    -0.180000       12.0110           0
     13401 MEMB     108      23SM     H8S      HAL2     0.900000E-01   1.00800           0
     13402 MEMB     108      23SM     H8T      HAL2     0.900000E-01   1.00800           0
     13403 MEMB     108      23SM     C9S      CTL2    -0.180000       12.0110           0
     13404 MEMB     108      23SM     H9S      HAL2     0.900000E-01   1.00800           0
     13405 MEMB     108      23SM     H9T      HAL2     0.900000E-01   1.00800           0
     13406 MEMB     108      23SM     C10S     CTL2    -0.180000       12.0110           0
     13407 MEMB     108      23SM     H10S     HAL2     0.900000E-01   1.00800           0
     13408 MEMB     108      23SM     H10T     HAL2     0.900000E-01   1.00800           0
     13409 MEMB     108      23SM     C11S     CTL2    -0.180000       12.0110           0
     13410 MEMB     108      23SM     H11S     HAL2     0.900000E-01   1.00800           0
     13411 MEMB     108      23SM     H11T     HAL2     0.900000E-01   1.00800           0
     13412 MEMB     108      23SM     C12S     CTL2    -0.180000       12.0110           0
     13413 MEMB     108      23SM     H12S     HAL2     0.900000E-01   1.00800           0
     13414 MEMB     108      23SM     H12T     HAL2     0.900000E-01   1.00800           0
     13415 MEMB     108      23SM     C13S     CTL2    -0.180000       12.0110           0
     13416 MEMB     108      23SM     H13S     HAL2     0.900000E-01   1.00800           0
     13417 MEMB     108      23SM     H13T     HAL2     0.900000E-01   1.00800           0
     13418 MEMB     108      23SM     C14S     CTL2    -0.180000       12.0110           0
     13419 MEMB     108      23SM     H14S     HAL2     0.900000E-01   1.00800           0
     13420 MEMB     108      23SM     H14T     HAL2     0.900000E-01   1.00800           0
     13421 MEMB     108      23SM     C15S     CTL2    -0.180000       12.0110           0
     13422 MEMB     108      23SM     H15S     HAL2     0.900000E-01   1.00800           0
     13423 MEMB     108      23SM     H15T     HAL2     0.900000E-01   1.00800           0
     13424 MEMB     108      23SM     C16S     CTL2    -0.180000       12.0110           0
     13425 MEMB     108      23SM     H16S     HAL2     0.900000E-01   1.00800           0
     13426 MEMB     108      23SM     H16T     HAL2     0.900000E-01   1.00800           0
     13427 MEMB     108      23SM     C17S     CTL2    -0.180000       12.0110           0
     13428 MEMB     108      23SM     H17S     HAL2     0.900000E-01   1.00800           0
     13429 MEMB     108      23SM     H17T     HAL2     0.900000E-01   1.00800           0
     13430 MEMB     108      23SM     C18S     CTL3    -0.270000       12.0110           0
     13431 MEMB     108      23SM     H18S     HAL3     0.900000E-01   1.00800           0
     13432 MEMB     108      23SM     H18T     HAL3     0.900000E-01   1.00800           0
     13433 MEMB     108      23SM     H18U     HAL3     0.900000E-01   1.00800           0
     13434 MEMB     108      23SM     C1F      C        0.550000       12.0110           0
     13435 MEMB     108      23SM     OF       O       -0.600000       15.9994           0
     13436 MEMB     108      23SM     C2F      CTL2    -0.700000E-01   12.0110           0
     13437 MEMB     108      23SM     H2F      HAL2     0.600000E-01   1.00800           0
     13438 MEMB     108      23SM     H2G      HAL2     0.600000E-01   1.00800           0
     13439 MEMB     108      23SM     C3F      CTL2    -0.180000       12.0110           0
     13440 MEMB     108      23SM     H3F      HAL2     0.900000E-01   1.00800           0
     13441 MEMB     108      23SM     H3G      HAL2     0.900000E-01   1.00800           0
     13442 MEMB     108      23SM     C4F      CTL2    -0.180000       12.0110           0
     13443 MEMB     108      23SM     H4F      HAL2     0.900000E-01   1.00800           0
     13444 MEMB     108      23SM     H4G      HAL2     0.900000E-01   1.00800           0
     13445 MEMB     108      23SM     C5F      CTL2    -0.180000       12.0110           0
     13446 MEMB     108      23SM     H5F      HAL2     0.900000E-01   1.00800           0
     13447 MEMB     108      23SM     H5G      HAL2     0.900000E-01   1.00800           0
     13448 MEMB     108      23SM     C6F      CTL2    -0.180000       12.0110           0
     13449 MEMB     108      23SM     H6F      HAL2     0.900000E-01   1.00800           0
     13450 MEMB     108      23SM     H6G      HAL2     0.900000E-01   1.00800           0
     13451 MEMB     108      23SM     C7F      CTL2    -0.180000       12.0110           0
     13452 MEMB     108      23SM     H7F      HAL2     0.900000E-01   1.00800           0
     13453 MEMB     108      23SM     H7G      HAL2     0.900000E-01   1.00800           0
     13454 MEMB     108      23SM     C8F      CTL2    -0.180000       12.0110           0
     13455 MEMB     108      23SM     H8F      HAL2     0.900000E-01   1.00800           0
     13456 MEMB     108      23SM     H8G      HAL2     0.900000E-01   1.00800           0
     13457 MEMB     108      23SM     C9F      CTL2    -0.180000       12.0110           0
     13458 MEMB     108      23SM     H9F      HAL2     0.900000E-01   1.00800           0
     13459 MEMB     108      23SM     H9G      HAL2     0.900000E-01   1.00800           0
     13460 MEMB     108      23SM     C10F     CTL2    -0.180000       12.0110           0
     13461 MEMB     108      23SM     H10F     HAL2     0.900000E-01   1.00800           0
     13462 MEMB     108      23SM     H10G     HAL2     0.900000E-01   1.00800           0
     13463 MEMB     108      23SM     C11F     CTL2    -0.180000       12.0110           0
     13464 MEMB     108      23SM     H11F     HAL2     0.900000E-01   1.00800           0
     13465 MEMB     108      23SM     H11G     HAL2     0.900000E-01   1.00800           0
     13466 MEMB     108      23SM     C12F     CTL2    -0.180000       12.0110           0
     13467 MEMB     108      23SM     H12F     HAL2     0.900000E-01   1.00800           0
     13468 MEMB     108      23SM     H12G     HAL2     0.900000E-01   1.00800           0
     13469 MEMB     108      23SM     C13F     CTL2    -0.180000       12.0110           0
     13470 MEMB     108      23SM     H13F     HAL2     0.900000E-01   1.00800           0
     13471 MEMB     108      23SM     H13G     HAL2     0.900000E-01   1.00800           0
     13472 MEMB     108      23SM     C14F     CTL2    -0.180000       12.0110           0
     13473 MEMB     108      23SM     H14F     HAL2     0.900000E-01   1.00800           0
     13474 MEMB     108      23SM     H14G     HAL2     0.900000E-01   1.00800           0
     13475 MEMB     108      23SM     C15F     CTL2    -0.180000       12.0110           0
     13476 MEMB     108      23SM     H15F     HAL2     0.900000E-01   1.00800           0
     13477 MEMB     108      23SM     H15G     HAL2     0.900000E-01   1.00800           0
     13478 MEMB     108      23SM     C16F     CTL2    -0.180000       12.0110           0
     13479 MEMB     108      23SM     H16F     HAL2     0.900000E-01   1.00800           0
     13480 MEMB     108      23SM     H16G     HAL2     0.900000E-01   1.00800           0
     13481 MEMB     108      23SM     C17F     CTL2    -0.180000       12.0110           0
     13482 MEMB     108      23SM     H17F     HAL2     0.900000E-01   1.00800           0
     13483 MEMB     108      23SM     H17G     HAL2     0.900000E-01   1.00800           0
     13484 MEMB     108      23SM     C18F     CTL2    -0.180000       12.0110           0
     13485 MEMB     108      23SM     H18F     HAL2     0.900000E-01   1.00800           0
     13486 MEMB     108      23SM     H18G     HAL2     0.900000E-01   1.00800           0
     13487 MEMB     108      23SM     C19F     CTL2    -0.180000       12.0110           0
     13488 MEMB     108      23SM     H19F     HAL2     0.900000E-01   1.00800           0
     13489 MEMB     108      23SM     H19G     HAL2     0.900000E-01   1.00800           0
     13490 MEMB     108      23SM     C20F     CTL2    -0.180000       12.0110           0
     13491 MEMB     108      23SM     H20F     HAL2     0.900000E-01   1.00800           0
     13492 MEMB     108      23SM     H20G     HAL2     0.900000E-01   1.00800           0
     13493 MEMB     108      23SM     C21F     CTL2    -0.180000       12.0110           0
     13494 MEMB     108      23SM     H21F     HAL2     0.900000E-01   1.00800           0
     13495 MEMB     108      23SM     H21G     HAL2     0.900000E-01   1.00800           0
     13496 MEMB     108      23SM     C22F     CTL2    -0.180000       12.0110           0
     13497 MEMB     108      23SM     H22F     HAL2     0.900000E-01   1.00800           0
     13498 MEMB     108      23SM     H22G     HAL2     0.900000E-01   1.00800           0
     13499 MEMB     108      23SM     C23F     CTL3    -0.270000       12.0110           0
     13500 MEMB     108      23SM     H23F     HAL3     0.900000E-01   1.00800           0
     13501 MEMB     108      23SM     H23G     HAL3     0.900000E-01   1.00800           0
     13502 MEMB     108      23SM     H23H     HAL3     0.900000E-01   1.00800           0
     13503 MEMB     109      CHL1     C3       CRL1     0.140000       12.0110           0
     13504 MEMB     109      CHL1     H3       HGA1     0.900000E-01   1.00800           0
     13505 MEMB     109      CHL1     O3       OHL     -0.660000       15.9994           0
     13506 MEMB     109      CHL1     H3'      HOL      0.430000       1.00800           0
     13507 MEMB     109      CHL1     C4       CRL2    -0.180000       12.0110           0
     13508 MEMB     109      CHL1     H4A      HGA2     0.900000E-01   1.00800           0
     13509 MEMB     109      CHL1     H4B      HGA2     0.900000E-01   1.00800           0
     13510 MEMB     109      CHL1     C5       CEL1      0.00000       12.0110           0
     13511 MEMB     109      CHL1     C6       CEL1    -0.150000       12.0110           0
     13512 MEMB     109      CHL1     H6       HEL1     0.150000       1.00800           0
     13513 MEMB     109      CHL1     C7       CRL2    -0.180000       12.0110           0
     13514 MEMB     109      CHL1     H7A      HGA2     0.900000E-01   1.00800           0
     13515 MEMB     109      CHL1     H7B      HGA2     0.900000E-01   1.00800           0
     13516 MEMB     109      CHL1     C8       CRL1    -0.900000E-01   12.0110           0
     13517 MEMB     109      CHL1     H8       HGA1     0.900000E-01   1.00800           0
     13518 MEMB     109      CHL1     C14      CRL1    -0.900000E-01   12.0110           0
     13519 MEMB     109      CHL1     H14      HGA1     0.900000E-01   1.00800           0
     13520 MEMB     109      CHL1     C15      CRL2    -0.180000       12.0110           0
     13521 MEMB     109      CHL1     H15A     HGA2     0.900000E-01   1.00800           0
     13522 MEMB     109      CHL1     H15B     HGA2     0.900000E-01   1.00800           0
     13523 MEMB     109      CHL1     C16      CRL2    -0.180000       12.0110           0
     13524 MEMB     109      CHL1     H16A     HGA2     0.900000E-01   1.00800           0
     13525 MEMB     109      CHL1     H16B     HGA2     0.900000E-01   1.00800           0
     13526 MEMB     109      CHL1     C17      CRL1    -0.900000E-01   12.0110           0
     13527 MEMB     109      CHL1     H17      HGA1     0.900000E-01   1.00800           0
     13528 MEMB     109      CHL1     C13      CRL1      0.00000       12.0110           0
     13529 MEMB     109      CHL1     C18      CTL3    -0.270000       12.0110           0
     13530 MEMB     109      CHL1     H18A     HAL3     0.900000E-01   1.00800           0
     13531 MEMB     109      CHL1     H18B     HAL3     0.900000E-01   1.00800           0
     13532 MEMB     109      CHL1     H18C     HAL3     0.900000E-01   1.00800           0
     13533 MEMB     109      CHL1     C12      CRL2    -0.180000       12.0110           0
     13534 MEMB     109      CHL1     H12A     HGA2     0.900000E-01   1.00800           0
     13535 MEMB     109      CHL1     H12B     HGA2     0.900000E-01   1.00800           0
     13536 MEMB     109      CHL1     C11      CRL2    -0.180000       12.0110           0
     13537 MEMB     109      CHL1     H11A     HGA2     0.900000E-01   1.00800           0
     13538 MEMB     109      CHL1     H11B     HGA2     0.900000E-01   1.00800           0
     13539 MEMB     109      CHL1     C9       CRL1    -0.900000E-01   12.0110           0
     13540 MEMB     109      CHL1     H9       HGA1     0.900000E-01   1.00800           0
     13541 MEMB     109      CHL1     C10      CRL1      0.00000       12.0110           0
     13542 MEMB     109      CHL1     C19      CTL3    -0.270000       12.0110           0
     13543 MEMB     109      CHL1     H19A     HAL3     0.900000E-01   1.00800           0
     13544 MEMB     109      CHL1     H19B     HAL3     0.900000E-01   1.00800           0
     13545 MEMB     109      CHL1     H19C     HAL3     0.900000E-01   1.00800           0
     13546 MEMB     109      CHL1     C1       CRL2    -0.180000       12.0110           0
     13547 MEMB     109      CHL1     H1A      HGA2     0.900000E-01   1.00800           0
     13548 MEMB     109      CHL1     H1B      HGA2     0.900000E-01   1.00800           0
     13549 MEMB     109      CHL1     C2       CRL2    -0.180000       12.0110           0
     13550 MEMB     109      CHL1     H2A      HGA2     0.900000E-01   1.00800           0
     13551 MEMB     109      CHL1     H2B      HGA2     0.900000E-01   1.00800           0
     13552 MEMB     109      CHL1     C20      CTL1    -0.900000E-01   12.0110           0
     13553 MEMB     109      CHL1     H20      HAL1     0.900000E-01   1.00800           0
     13554 MEMB     109      CHL1     C21      CTL3    -0.270000       12.0110           0
     13555 MEMB     109      CHL1     H21A     HAL3     0.900000E-01   1.00800           0
     13556 MEMB     109      CHL1     H21B     HAL3     0.900000E-01   1.00800           0
     13557 MEMB     109      CHL1     H21C     HAL3     0.900000E-01   1.00800           0
     13558 MEMB     109      CHL1     C22      CTL2    -0.180000       12.0110           0
     13559 MEMB     109      CHL1     H22A     HAL2     0.900000E-01   1.00800           0
     13560 MEMB     109      CHL1     H22B     HAL2     0.900000E-01   1.00800           0
     13561 MEMB     109      CHL1     C23      CTL2    -0.180000       12.0110           0
     13562 MEMB     109      CHL1     H23A     HAL2     0.900000E-01   1.00800           0
     13563 MEMB     109      CHL1     H23B     HAL2     0.900000E-01   1.00800           0
     13564 MEMB     109      CHL1     C24      CTL2    -0.180000       12.0110           0
     13565 MEMB     109      CHL1     H24A     HAL2     0.900000E-01   1.00800           0
     13566 MEMB     109      CHL1     H24B     HAL2     0.900000E-01   1.00800           0
     13567 MEMB     109      CHL1     C25      CTL1    -0.900000E-01   12.0110           0
     13568 MEMB     109      CHL1     H25      HAL1     0.900000E-01   1.00800           0
     13569 MEMB     109      CHL1     C26      CTL3    -0.270000       12.0110           0
     13570 MEMB     109      CHL1     H26A     HAL3     0.900000E-01   1.00800           0
     13571 MEMB     109      CHL1     H26B     HAL3     0.900000E-01   1.00800           0
     13572 MEMB     109      CHL1     H26C     HAL3     0.900000E-01   1.00800           0
     13573 MEMB     109      CHL1     C27      CTL3    -0.270000       12.0110           0
     13574 MEMB     109      CHL1     H27A     HAL3     0.900000E-01   1.00800           0
     13575 MEMB     109      CHL1     H27B     HAL3     0.900000E-01   1.00800           0
     13576 MEMB     109      CHL1     H27C     HAL3     0.900000E-01   1.00800           0
     13577 MEMB     110      CHL1     C3       CRL1     0.140000       12.0110           0
     13578 MEMB     110      CHL1     H3       HGA1     0.900000E-01   1.00800           0
     13579 MEMB     110      CHL1     O3       OHL     -0.660000       15.9994           0
     13580 MEMB     110      CHL1     H3'      HOL      0.430000       1.00800           0
     13581 MEMB     110      CHL1     C4       CRL2    -0.180000       12.0110           0
     13582 MEMB     110      CHL1     H4A      HGA2     0.900000E-01   1.00800           0
     13583 MEMB     110      CHL1     H4B      HGA2     0.900000E-01   1.00800           0
     13584 MEMB     110      CHL1     C5       CEL1      0.00000       12.0110           0
     13585 MEMB     110      CHL1     C6       CEL1    -0.150000       12.0110           0
     13586 MEMB     110      CHL1     H6       HEL1     0.150000       1.00800           0
     13587 MEMB     110      CHL1     C7       CRL2    -0.180000       12.0110           0
     13588 MEMB     110      CHL1     H7A      HGA2     0.900000E-01   1.00800           0
     13589 MEMB     110      CHL1     H7B      HGA2     0.900000E-01   1.00800           0
     13590 MEMB     110      CHL1     C8       CRL1    -0.900000E-01   12.0110           0
     13591 MEMB     110      CHL1     H8       HGA1     0.900000E-01   1.00800           0
     13592 MEMB     110      CHL1     C14      CRL1    -0.900000E-01   12.0110           0
     13593 MEMB     110      CHL1     H14      HGA1     0.900000E-01   1.00800           0
     13594 MEMB     110      CHL1     C15      CRL2    -0.180000       12.0110           0
     13595 MEMB     110      CHL1     H15A     HGA2     0.900000E-01   1.00800           0
     13596 MEMB     110      CHL1     H15B     HGA2     0.900000E-01   1.00800           0
     13597 MEMB     110      CHL1     C16      CRL2    -0.180000       12.0110           0
     13598 MEMB     110      CHL1     H16A     HGA2     0.900000E-01   1.00800           0
     13599 MEMB     110      CHL1     H16B     HGA2     0.900000E-01   1.00800           0
     13600 MEMB     110      CHL1     C17      CRL1    -0.900000E-01   12.0110           0
     13601 MEMB     110      CHL1     H17      HGA1     0.900000E-01   1.00800           0
     13602 MEMB     110      CHL1     C13      CRL1      0.00000       12.0110           0
     13603 MEMB     110      CHL1     C18      CTL3    -0.270000       12.0110           0
     13604 MEMB     110      CHL1     H18A     HAL3     0.900000E-01   1.00800           0
     13605 MEMB     110      CHL1     H18B     HAL3     0.900000E-01   1.00800           0
     13606 MEMB     110      CHL1     H18C     HAL3     0.900000E-01   1.00800           0
     13607 MEMB     110      CHL1     C12      CRL2    -0.180000       12.0110           0
     13608 MEMB     110      CHL1     H12A     HGA2     0.900000E-01   1.00800           0
     13609 MEMB     110      CHL1     H12B     HGA2     0.900000E-01   1.00800           0
     13610 MEMB     110      CHL1     C11      CRL2    -0.180000       12.0110           0
     13611 MEMB     110      CHL1     H11A     HGA2     0.900000E-01   1.00800           0
     13612 MEMB     110      CHL1     H11B     HGA2     0.900000E-01   1.00800           0
     13613 MEMB     110      CHL1     C9       CRL1    -0.900000E-01   12.0110           0
     13614 MEMB     110      CHL1     H9       HGA1     0.900000E-01   1.00800           0
     13615 MEMB     110      CHL1     C10      CRL1      0.00000       12.0110           0
     13616 MEMB     110      CHL1     C19      CTL3    -0.270000       12.0110           0
     13617 MEMB     110      CHL1     H19A     HAL3     0.900000E-01   1.00800           0
     13618 MEMB     110      CHL1     H19B     HAL3     0.900000E-01   1.00800           0
     13619 MEMB     110      CHL1     H19C     HAL3     0.900000E-01   1.00800           0
     13620 MEMB     110      CHL1     C1       CRL2    -0.180000       12.0110           0
     13621 MEMB     110      CHL1     H1A      HGA2     0.900000E-01   1.00800           0
     13622 MEMB     110      CHL1     H1B      HGA2     0.900000E-01   1.00800           0
     13623 MEMB     110      CHL1     C2       CRL2    -0.180000       12.0110           0
     13624 MEMB     110      CHL1     H2A      HGA2     0.900000E-01   1.00800           0
     13625 MEMB     110      CHL1     H2B      HGA2     0.900000E-01   1.00800           0
     13626 MEMB     110      CHL1     C20      CTL1    -0.900000E-01   12.0110           0
     13627 MEMB     110      CHL1     H20      HAL1     0.900000E-01   1.00800           0
     13628 MEMB     110      CHL1     C21      CTL3    -0.270000       12.0110           0
     13629 MEMB     110      CHL1     H21A     HAL3     0.900000E-01   1.00800           0
     13630 MEMB     110      CHL1     H21B     HAL3     0.900000E-01   1.00800           0
     13631 MEMB     110      CHL1     H21C     HAL3     0.900000E-01   1.00800           0
     13632 MEMB     110      CHL1     C22      CTL2    -0.180000       12.0110           0
     13633 MEMB     110      CHL1     H22A     HAL2     0.900000E-01   1.00800           0
     13634 MEMB     110      CHL1     H22B     HAL2     0.900000E-01   1.00800           0
     13635 MEMB     110      CHL1     C23      CTL2    -0.180000       12.0110           0
     13636 MEMB     110      CHL1     H23A     HAL2     0.900000E-01   1.00800           0
     13637 MEMB     110      CHL1     H23B     HAL2     0.900000E-01   1.00800           0
     13638 MEMB     110      CHL1     C24      CTL2    -0.180000       12.0110           0
     13639 MEMB     110      CHL1     H24A     HAL2     0.900000E-01   1.00800           0
     13640 MEMB     110      CHL1     H24B     HAL2     0.900000E-01   1.00800           0
     13641 MEMB     110      CHL1     C25      CTL1    -0.900000E-01   12.0110           0
     13642 MEMB     110      CHL1     H25      HAL1     0.900000E-01   1.00800           0
     13643 MEMB     110      CHL1     C26      CTL3    -0.270000       12.0110           0
     13644 MEMB     110      CHL1     H26A     HAL3     0.900000E-01   1.00800           0
     13645 MEMB     110      CHL1     H26B     HAL3     0.900000E-01   1.00800           0
     13646 MEMB     110      CHL1     H26C     HAL3     0.900000E-01   1.00800           0
     13647 MEMB     110      CHL1     C27      CTL3    -0.270000       12.0110           0
     13648 MEMB     110      CHL1     H27A     HAL3     0.900000E-01   1.00800           0
     13649 MEMB     110      CHL1     H27B     HAL3     0.900000E-01   1.00800           0
     13650 MEMB     110      CHL1     H27C     HAL3     0.900000E-01   1.00800           0
     13651 MEMB     111      CHL1     C3       CRL1     0.140000       12.0110           0
     13652 MEMB     111      CHL1     H3       HGA1     0.900000E-01   1.00800           0
     13653 MEMB     111      CHL1     O3       OHL     -0.660000       15.9994           0
     13654 MEMB     111      CHL1     H3'      HOL      0.430000       1.00800           0
     13655 MEMB     111      CHL1     C4       CRL2    -0.180000       12.0110           0
     13656 MEMB     111      CHL1     H4A      HGA2     0.900000E-01   1.00800           0
     13657 MEMB     111      CHL1     H4B      HGA2     0.900000E-01   1.00800           0
     13658 MEMB     111      CHL1     C5       CEL1      0.00000       12.0110           0
     13659 MEMB     111      CHL1     C6       CEL1    -0.150000       12.0110           0
     13660 MEMB     111      CHL1     H6       HEL1     0.150000       1.00800           0
     13661 MEMB     111      CHL1     C7       CRL2    -0.180000       12.0110           0
     13662 MEMB     111      CHL1     H7A      HGA2     0.900000E-01   1.00800           0
     13663 MEMB     111      CHL1     H7B      HGA2     0.900000E-01   1.00800           0
     13664 MEMB     111      CHL1     C8       CRL1    -0.900000E-01   12.0110           0
     13665 MEMB     111      CHL1     H8       HGA1     0.900000E-01   1.00800           0
     13666 MEMB     111      CHL1     C14      CRL1    -0.900000E-01   12.0110           0
     13667 MEMB     111      CHL1     H14      HGA1     0.900000E-01   1.00800           0
     13668 MEMB     111      CHL1     C15      CRL2    -0.180000       12.0110           0
     13669 MEMB     111      CHL1     H15A     HGA2     0.900000E-01   1.00800           0
     13670 MEMB     111      CHL1     H15B     HGA2     0.900000E-01   1.00800           0
     13671 MEMB     111      CHL1     C16      CRL2    -0.180000       12.0110           0
     13672 MEMB     111      CHL1     H16A     HGA2     0.900000E-01   1.00800           0
     13673 MEMB     111      CHL1     H16B     HGA2     0.900000E-01   1.00800           0
     13674 MEMB     111      CHL1     C17      CRL1    -0.900000E-01   12.0110           0
     13675 MEMB     111      CHL1     H17      HGA1     0.900000E-01   1.00800           0
     13676 MEMB     111      CHL1     C13      CRL1      0.00000       12.0110           0
     13677 MEMB     111      CHL1     C18      CTL3    -0.270000       12.0110           0
     13678 MEMB     111      CHL1     H18A     HAL3     0.900000E-01   1.00800           0
     13679 MEMB     111      CHL1     H18B     HAL3     0.900000E-01   1.00800           0
     13680 MEMB     111      CHL1     H18C     HAL3     0.900000E-01   1.00800           0
     13681 MEMB     111      CHL1     C12      CRL2    -0.180000       12.0110           0
     13682 MEMB     111      CHL1     H12A     HGA2     0.900000E-01   1.00800           0
     13683 MEMB     111      CHL1     H12B     HGA2     0.900000E-01   1.00800           0
     13684 MEMB     111      CHL1     C11      CRL2    -0.180000       12.0110           0
     13685 MEMB     111      CHL1     H11A     HGA2     0.900000E-01   1.00800           0
     13686 MEMB     111      CHL1     H11B     HGA2     0.900000E-01   1.00800           0
     13687 MEMB     111      CHL1     C9       CRL1    -0.900000E-01   12.0110           0
     13688 MEMB     111      CHL1     H9       HGA1     0.900000E-01   1.00800           0
     13689 MEMB     111      CHL1     C10      CRL1      0.00000       12.0110           0
     13690 MEMB     111      CHL1     C19      CTL3    -0.270000       12.0110           0
     13691 MEMB     111      CHL1     H19A     HAL3     0.900000E-01   1.00800           0
     13692 MEMB     111      CHL1     H19B     HAL3     0.900000E-01   1.00800           0
     13693 MEMB     111      CHL1     H19C     HAL3     0.900000E-01   1.00800           0
     13694 MEMB     111      CHL1     C1       CRL2    -0.180000       12.0110           0
     13695 MEMB     111      CHL1     H1A      HGA2     0.900000E-01   1.00800           0
     13696 MEMB     111      CHL1     H1B      HGA2     0.900000E-01   1.00800           0
     13697 MEMB     111      CHL1     C2       CRL2    -0.180000       12.0110           0
     13698 MEMB     111      CHL1     H2A      HGA2     0.900000E-01   1.00800           0
     13699 MEMB     111      CHL1     H2B      HGA2     0.900000E-01   1.00800           0
     13700 MEMB     111      CHL1     C20      CTL1    -0.900000E-01   12.0110           0
     13701 MEMB     111      CHL1     H20      HAL1     0.900000E-01   1.00800           0
     13702 MEMB     111      CHL1     C21      CTL3    -0.270000       12.0110           0
     13703 MEMB     111      CHL1     H21A     HAL3     0.900000E-01   1.00800           0
     13704 MEMB     111      CHL1     H21B     HAL3     0.900000E-01   1.00800           0
     13705 MEMB     111      CHL1     H21C     HAL3     0.900000E-01   1.00800           0
     13706 MEMB     111      CHL1     C22      CTL2    -0.180000       12.0110           0
     13707 MEMB     111      CHL1     H22A     HAL2     0.900000E-01   1.00800           0
     13708 MEMB     111      CHL1     H22B     HAL2     0.900000E-01   1.00800           0
     13709 MEMB     111      CHL1     C23      CTL2    -0.180000       12.0110           0
     13710 MEMB     111      CHL1     H23A     HAL2     0.900000E-01   1.00800           0
     13711 MEMB     111      CHL1     H23B     HAL2     0.900000E-01   1.00800           0
     13712 MEMB     111      CHL1     C24      CTL2    -0.180000       12.0110           0
     13713 MEMB     111      CHL1     H24A     HAL2     0.900000E-01   1.00800           0
     13714 MEMB     111      CHL1     H24B     HAL2     0.900000E-01   1.00800           0
     13715 MEMB     111      CHL1     C25      CTL1    -0.900000E-01   12.0110           0
     13716 MEMB     111      CHL1     H25      HAL1     0.900000E-01   1.00800           0
     13717 MEMB     111      CHL1     C26      CTL3    -0.270000       12.0110           0
     13718 MEMB     111      CHL1     H26A     HAL3     0.900000E-01   1.00800           0
     13719 MEMB     111      CHL1     H26B     HAL3     0.900000E-01   1.00800           0
     13720 MEMB     111      CHL1     H26C     HAL3     0.900000E-01   1.00800           0
     13721 MEMB     111      CHL1     C27      CTL3    -0.270000       12.0110           0
     13722 MEMB     111      CHL1     H27A     HAL3     0.900000E-01   1.00800           0
     13723 MEMB     111      CHL1     H27B     HAL3     0.900000E-01   1.00800           0
     13724 MEMB     111      CHL1     H27C     HAL3     0.900000E-01   1.00800           0
     13725 MEMB     112      23SM     N        NTL     -0.600000       14.0070           0
     13726 MEMB     112      23SM     C15      CTL5    -0.350000       12.0110           0
     13727 MEMB     112      23SM     H15A     HL       0.250000       1.00800           0
     13728 MEMB     112      23SM     H15B     HL       0.250000       1.00800           0
     13729 MEMB     112      23SM     H15C     HL       0.250000       1.00800           0
     13730 MEMB     112      23SM     C14      CTL5    -0.350000       12.0110           0
     13731 MEMB     112      23SM     H14A     HL       0.250000       1.00800           0
     13732 MEMB     112      23SM     H14B     HL       0.250000       1.00800           0
     13733 MEMB     112      23SM     H14C     HL       0.250000       1.00800           0
     13734 MEMB     112      23SM     C13      CTL5    -0.350000       12.0110           0
     13735 MEMB     112      23SM     H13A     HL       0.250000       1.00800           0
     13736 MEMB     112      23SM     H13B     HL       0.250000       1.00800           0
     13737 MEMB     112      23SM     H13C     HL       0.250000       1.00800           0
     13738 MEMB     112      23SM     C12      CTL2    -0.100000       12.0110           0
     13739 MEMB     112      23SM     H12A     HL       0.250000       1.00800           0
     13740 MEMB     112      23SM     H12B     HL       0.250000       1.00800           0
     13741 MEMB     112      23SM     C11      CTL2    -0.800000E-01   12.0110           0
     13742 MEMB     112      23SM     H11A     HAL2     0.900000E-01   1.00800           0
     13743 MEMB     112      23SM     H11B     HAL2     0.900000E-01   1.00800           0
     13744 MEMB     112      23SM     P        PL        1.50000       30.9740           0
     13745 MEMB     112      23SM     O13      O2L     -0.780000       15.9994           0
     13746 MEMB     112      23SM     O14      O2L     -0.780000       15.9994           0
     13747 MEMB     112      23SM     O11      OSLP    -0.570000       15.9994           0
     13748 MEMB     112      23SM     O12      OSLP    -0.570000       15.9994           0
     13749 MEMB     112      23SM     C1S      CTL2    -0.800000E-01   12.0110           0
     13750 MEMB     112      23SM     H1S      HAL2     0.900000E-01   1.00800           0
     13751 MEMB     112      23SM     H1T      HAL2     0.900000E-01   1.00800           0
     13752 MEMB     112      23SM     NF       NHL     -0.700000       14.0070           0
     13753 MEMB     112      23SM     HNF      H        0.350000       1.00800           0
     13754 MEMB     112      23SM     C2S      CTL1     0.300000       12.0110           0
     13755 MEMB     112      23SM     H2S      HAL1     0.500000E-01   1.00800           0
     13756 MEMB     112      23SM     C3S      CTO1     0.500000       12.0110           0
     13757 MEMB     112      23SM     H3S      HAL1    -0.110000       1.00800           0
     13758 MEMB     112      23SM     O3       OHL     -0.690000       15.9994           0
     13759 MEMB     112      23SM     HO3      HOL      0.300000       1.00800           0
     13760 MEMB     112      23SM     C4S      CEL3    -0.150000       12.0110           0
     13761 MEMB     112      23SM     H4S      HEL1     0.150000       1.00800           0
     13762 MEMB     112      23SM     C5S      CEL3    -0.150000       12.0110           0
     13763 MEMB     112      23SM     H5S      HEL1     0.150000       1.00800           0
     13764 MEMB     112      23SM     C6S      CTL2    -0.180000       12.0110           0
     13765 MEMB     112      23SM     H6S      HAL2     0.900000E-01   1.00800           0
     13766 MEMB     112      23SM     H6T      HAL2     0.900000E-01   1.00800           0
     13767 MEMB     112      23SM     C7S      CTL2    -0.180000       12.0110           0
     13768 MEMB     112      23SM     H7S      HAL2     0.900000E-01   1.00800           0
     13769 MEMB     112      23SM     H7T      HAL2     0.900000E-01   1.00800           0
     13770 MEMB     112      23SM     C8S      CTL2    -0.180000       12.0110           0
     13771 MEMB     112      23SM     H8S      HAL2     0.900000E-01   1.00800           0
     13772 MEMB     112      23SM     H8T      HAL2     0.900000E-01   1.00800           0
     13773 MEMB     112      23SM     C9S      CTL2    -0.180000       12.0110           0
     13774 MEMB     112      23SM     H9S      HAL2     0.900000E-01   1.00800           0
     13775 MEMB     112      23SM     H9T      HAL2     0.900000E-01   1.00800           0
     13776 MEMB     112      23SM     C10S     CTL2    -0.180000       12.0110           0
     13777 MEMB     112      23SM     H10S     HAL2     0.900000E-01   1.00800           0
     13778 MEMB     112      23SM     H10T     HAL2     0.900000E-01   1.00800           0
     13779 MEMB     112      23SM     C11S     CTL2    -0.180000       12.0110           0
     13780 MEMB     112      23SM     H11S     HAL2     0.900000E-01   1.00800           0
     13781 MEMB     112      23SM     H11T     HAL2     0.900000E-01   1.00800           0
     13782 MEMB     112      23SM     C12S     CTL2    -0.180000       12.0110           0
     13783 MEMB     112      23SM     H12S     HAL2     0.900000E-01   1.00800           0
     13784 MEMB     112      23SM     H12T     HAL2     0.900000E-01   1.00800           0
     13785 MEMB     112      23SM     C13S     CTL2    -0.180000       12.0110           0
     13786 MEMB     112      23SM     H13S     HAL2     0.900000E-01   1.00800           0
     13787 MEMB     112      23SM     H13T     HAL2     0.900000E-01   1.00800           0
     13788 MEMB     112      23SM     C14S     CTL2    -0.180000       12.0110           0
     13789 MEMB     112      23SM     H14S     HAL2     0.900000E-01   1.00800           0
     13790 MEMB     112      23SM     H14T     HAL2     0.900000E-01   1.00800           0
     13791 MEMB     112      23SM     C15S     CTL2    -0.180000       12.0110           0
     13792 MEMB     112      23SM     H15S     HAL2     0.900000E-01   1.00800           0
     13793 MEMB     112      23SM     H15T     HAL2     0.900000E-01   1.00800           0
     13794 MEMB     112      23SM     C16S     CTL2    -0.180000       12.0110           0
     13795 MEMB     112      23SM     H16S     HAL2     0.900000E-01   1.00800           0
     13796 MEMB     112      23SM     H16T     HAL2     0.900000E-01   1.00800           0
     13797 MEMB     112      23SM     C17S     CTL2    -0.180000       12.0110           0
     13798 MEMB     112      23SM     H17S     HAL2     0.900000E-01   1.00800           0
     13799 MEMB     112      23SM     H17T     HAL2     0.900000E-01   1.00800           0
     13800 MEMB     112      23SM     C18S     CTL3    -0.270000       12.0110           0
     13801 MEMB     112      23SM     H18S     HAL3     0.900000E-01   1.00800           0
     13802 MEMB     112      23SM     H18T     HAL3     0.900000E-01   1.00800           0
     13803 MEMB     112      23SM     H18U     HAL3     0.900000E-01   1.00800           0
     13804 MEMB     112      23SM     C1F      C        0.550000       12.0110           0
     13805 MEMB     112      23SM     OF       O       -0.600000       15.9994           0
     13806 MEMB     112      23SM     C2F      CTL2    -0.700000E-01   12.0110           0
     13807 MEMB     112      23SM     H2F      HAL2     0.600000E-01   1.00800           0
     13808 MEMB     112      23SM     H2G      HAL2     0.600000E-01   1.00800           0
     13809 MEMB     112      23SM     C3F      CTL2    -0.180000       12.0110           0
     13810 MEMB     112      23SM     H3F      HAL2     0.900000E-01   1.00800           0
     13811 MEMB     112      23SM     H3G      HAL2     0.900000E-01   1.00800           0
     13812 MEMB     112      23SM     C4F      CTL2    -0.180000       12.0110           0
     13813 MEMB     112      23SM     H4F      HAL2     0.900000E-01   1.00800           0
     13814 MEMB     112      23SM     H4G      HAL2     0.900000E-01   1.00800           0
     13815 MEMB     112      23SM     C5F      CTL2    -0.180000       12.0110           0
     13816 MEMB     112      23SM     H5F      HAL2     0.900000E-01   1.00800           0
     13817 MEMB     112      23SM     H5G      HAL2     0.900000E-01   1.00800           0
     13818 MEMB     112      23SM     C6F      CTL2    -0.180000       12.0110           0
     13819 MEMB     112      23SM     H6F      HAL2     0.900000E-01   1.00800           0
     13820 MEMB     112      23SM     H6G      HAL2     0.900000E-01   1.00800           0
     13821 MEMB     112      23SM     C7F      CTL2    -0.180000       12.0110           0
     13822 MEMB     112      23SM     H7F      HAL2     0.900000E-01   1.00800           0
     13823 MEMB     112      23SM     H7G      HAL2     0.900000E-01   1.00800           0
     13824 MEMB     112      23SM     C8F      CTL2    -0.180000       12.0110           0
     13825 MEMB     112      23SM     H8F      HAL2     0.900000E-01   1.00800           0
     13826 MEMB     112      23SM     H8G      HAL2     0.900000E-01   1.00800           0
     13827 MEMB     112      23SM     C9F      CTL2    -0.180000       12.0110           0
     13828 MEMB     112      23SM     H9F      HAL2     0.900000E-01   1.00800           0
     13829 MEMB     112      23SM     H9G      HAL2     0.900000E-01   1.00800           0
     13830 MEMB     112      23SM     C10F     CTL2    -0.180000       12.0110           0
     13831 MEMB     112      23SM     H10F     HAL2     0.900000E-01   1.00800           0
     13832 MEMB     112      23SM     H10G     HAL2     0.900000E-01   1.00800           0
     13833 MEMB     112      23SM     C11F     CTL2    -0.180000       12.0110           0
     13834 MEMB     112      23SM     H11F     HAL2     0.900000E-01   1.00800           0
     13835 MEMB     112      23SM     H11G     HAL2     0.900000E-01   1.00800           0
     13836 MEMB     112      23SM     C12F     CTL2    -0.180000       12.0110           0
     13837 MEMB     112      23SM     H12F     HAL2     0.900000E-01   1.00800           0
     13838 MEMB     112      23SM     H12G     HAL2     0.900000E-01   1.00800           0
     13839 MEMB     112      23SM     C13F     CTL2    -0.180000       12.0110           0
     13840 MEMB     112      23SM     H13F     HAL2     0.900000E-01   1.00800           0
     13841 MEMB     112      23SM     H13G     HAL2     0.900000E-01   1.00800           0
     13842 MEMB     112      23SM     C14F     CTL2    -0.180000       12.0110           0
     13843 MEMB     112      23SM     H14F     HAL2     0.900000E-01   1.00800           0
     13844 MEMB     112      23SM     H14G     HAL2     0.900000E-01   1.00800           0
     13845 MEMB     112      23SM     C15F     CTL2    -0.180000       12.0110           0
     13846 MEMB     112      23SM     H15F     HAL2     0.900000E-01   1.00800           0
     13847 MEMB     112      23SM     H15G     HAL2     0.900000E-01   1.00800           0
     13848 MEMB     112      23SM     C16F     CTL2    -0.180000       12.0110           0
     13849 MEMB     112      23SM     H16F     HAL2     0.900000E-01   1.00800           0
     13850 MEMB     112      23SM     H16G     HAL2     0.900000E-01   1.00800           0
     13851 MEMB     112      23SM     C17F     CTL2    -0.180000       12.0110           0
     13852 MEMB     112      23SM     H17F     HAL2     0.900000E-01   1.00800           0
     13853 MEMB     112      23SM     H17G     HAL2     0.900000E-01   1.00800           0
     13854 MEMB     112      23SM     C18F     CTL2    -0.180000       12.0110           0
     13855 MEMB     112      23SM     H18F     HAL2     0.900000E-01   1.00800           0
     13856 MEMB     112      23SM     H18G     HAL2     0.900000E-01   1.00800           0
     13857 MEMB     112      23SM     C19F     CTL2    -0.180000       12.0110           0
     13858 MEMB     112      23SM     H19F     HAL2     0.900000E-01   1.00800           0
     13859 MEMB     112      23SM     H19G     HAL2     0.900000E-01   1.00800           0
     13860 MEMB     112      23SM     C20F     CTL2    -0.180000       12.0110           0
     13861 MEMB     112      23SM     H20F     HAL2     0.900000E-01   1.00800           0
     13862 MEMB     112      23SM     H20G     HAL2     0.900000E-01   1.00800           0
     13863 MEMB     112      23SM     C21F     CTL2    -0.180000       12.0110           0
     13864 MEMB     112      23SM     H21F     HAL2     0.900000E-01   1.00800           0
     13865 MEMB     112      23SM     H21G     HAL2     0.900000E-01   1.00800           0
     13866 MEMB     112      23SM     C22F     CTL2    -0.180000       12.0110           0
     13867 MEMB     112      23SM     H22F     HAL2     0.900000E-01   1.00800           0
     13868 MEMB     112      23SM     H22G     HAL2     0.900000E-01   1.00800           0
     13869 MEMB     112      23SM     C23F     CTL3    -0.270000       12.0110           0
     13870 MEMB     112      23SM     H23F     HAL3     0.900000E-01   1.00800           0
     13871 MEMB     112      23SM     H23G     HAL3     0.900000E-01   1.00800           0
     13872 MEMB     112      23SM     H23H     HAL3     0.900000E-01   1.00800           0
     13873 MEMB     113      DOPE     N        NH3L    -0.300000       14.0070           0
     13874 MEMB     113      DOPE     HN1      HCL      0.330000       1.00800           0
     13875 MEMB     113      DOPE     HN2      HCL      0.330000       1.00800           0
     13876 MEMB     113      DOPE     HN3      HCL      0.330000       1.00800           0
     13877 MEMB     113      DOPE     C12      CTL2     0.130000       12.0110           0
     13878 MEMB     113      DOPE     H12A     HAL2     0.900000E-01   1.00800           0
     13879 MEMB     113      DOPE     H12B     HAL2     0.900000E-01   1.00800           0
     13880 MEMB     113      DOPE     C11      CTL2    -0.800000E-01   12.0110           0
     13881 MEMB     113      DOPE     H11A     HAL2     0.900000E-01   1.00800           0
     13882 MEMB     113      DOPE     H11B     HAL2     0.900000E-01   1.00800           0
     13883 MEMB     113      DOPE     P        PL        1.50000       30.9740           0
     13884 MEMB     113      DOPE     O13      O2L     -0.780000       15.9994           0
     13885 MEMB     113      DOPE     O14      O2L     -0.780000       15.9994           0
     13886 MEMB     113      DOPE     O11      OSLP    -0.570000       15.9994           0
     13887 MEMB     113      DOPE     O12      OSLP    -0.570000       15.9994           0
     13888 MEMB     113      DOPE     C1       CTL2    -0.800000E-01   12.0110           0
     13889 MEMB     113      DOPE     HA       HAL2     0.900000E-01   1.00800           0
     13890 MEMB     113      DOPE     HB       HAL2     0.900000E-01   1.00800           0
     13891 MEMB     113      DOPE     C2       CTL1     0.170000       12.0110           0
     13892 MEMB     113      DOPE     HS       HAL1     0.900000E-01   1.00800           0
     13893 MEMB     113      DOPE     O21      OSL     -0.490000       15.9994           0
     13894 MEMB     113      DOPE     C21      CL       0.900000       12.0110           0
     13895 MEMB     113      DOPE     O22      OBL     -0.630000       15.9994           0
     13896 MEMB     113      DOPE     C22      CTL2    -0.220000       12.0110           0
     13897 MEMB     113      DOPE     H2R      HAL2     0.900000E-01   1.00800           0
     13898 MEMB     113      DOPE     H2S      HAL2     0.900000E-01   1.00800           0
     13899 MEMB     113      DOPE     C3       CTL2     0.800000E-01   12.0110           0
     13900 MEMB     113      DOPE     HX       HAL2     0.900000E-01   1.00800           0
     13901 MEMB     113      DOPE     HY       HAL2     0.900000E-01   1.00800           0
     13902 MEMB     113      DOPE     O31      OSL     -0.490000       15.9994           0
     13903 MEMB     113      DOPE     C31      CL       0.900000       12.0110           0
     13904 MEMB     113      DOPE     O32      OBL     -0.630000       15.9994           0
     13905 MEMB     113      DOPE     C32      CTL2    -0.220000       12.0110           0
     13906 MEMB     113      DOPE     H2X      HAL2     0.900000E-01   1.00800           0
     13907 MEMB     113      DOPE     H2Y      HAL2     0.900000E-01   1.00800           0
     13908 MEMB     113      DOPE     C23      CTL2    -0.180000       12.0110           0
     13909 MEMB     113      DOPE     H3R      HAL2     0.900000E-01   1.00800           0
     13910 MEMB     113      DOPE     H3S      HAL2     0.900000E-01   1.00800           0
     13911 MEMB     113      DOPE     C24      CTL2    -0.180000       12.0110           0
     13912 MEMB     113      DOPE     H4R      HAL2     0.900000E-01   1.00800           0
     13913 MEMB     113      DOPE     H4S      HAL2     0.900000E-01   1.00800           0
     13914 MEMB     113      DOPE     C25      CTL2    -0.180000       12.0110           0
     13915 MEMB     113      DOPE     H5R      HAL2     0.900000E-01   1.00800           0
     13916 MEMB     113      DOPE     H5S      HAL2     0.900000E-01   1.00800           0
     13917 MEMB     113      DOPE     C26      CTL2    -0.180000       12.0110           0
     13918 MEMB     113      DOPE     H6R      HAL2     0.900000E-01   1.00800           0
     13919 MEMB     113      DOPE     H6S      HAL2     0.900000E-01   1.00800           0
     13920 MEMB     113      DOPE     C27      CTL2    -0.180000       12.0110           0
     13921 MEMB     113      DOPE     H7R      HAL2     0.900000E-01   1.00800           0
     13922 MEMB     113      DOPE     H7S      HAL2     0.900000E-01   1.00800           0
     13923 MEMB     113      DOPE     C28      CTL2    -0.180000       12.0110           0
     13924 MEMB     113      DOPE     H8R      HAL2     0.900000E-01   1.00800           0
     13925 MEMB     113      DOPE     H8S      HAL2     0.900000E-01   1.00800           0
     13926 MEMB     113      DOPE     C29      CEL1    -0.150000       12.0110           0
     13927 MEMB     113      DOPE     H9R      HEL1     0.150000       1.00800           0
     13928 MEMB     113      DOPE     C210     CEL1    -0.150000       12.0110           0
     13929 MEMB     113      DOPE     H10R     HEL1     0.150000       1.00800           0
     13930 MEMB     113      DOPE     C211     CTL2    -0.180000       12.0110           0
     13931 MEMB     113      DOPE     H11R     HAL2     0.900000E-01   1.00800           0
     13932 MEMB     113      DOPE     H11S     HAL2     0.900000E-01   1.00800           0
     13933 MEMB     113      DOPE     C212     CTL2    -0.180000       12.0110           0
     13934 MEMB     113      DOPE     H12R     HAL2     0.900000E-01   1.00800           0
     13935 MEMB     113      DOPE     H12S     HAL2     0.900000E-01   1.00800           0
     13936 MEMB     113      DOPE     C213     CTL2    -0.180000       12.0110           0
     13937 MEMB     113      DOPE     H13R     HAL2     0.900000E-01   1.00800           0
     13938 MEMB     113      DOPE     H13S     HAL2     0.900000E-01   1.00800           0
     13939 MEMB     113      DOPE     C214     CTL2    -0.180000       12.0110           0
     13940 MEMB     113      DOPE     H14R     HAL2     0.900000E-01   1.00800           0
     13941 MEMB     113      DOPE     H14S     HAL2     0.900000E-01   1.00800           0
     13942 MEMB     113      DOPE     C215     CTL2    -0.180000       12.0110           0
     13943 MEMB     113      DOPE     H15R     HAL2     0.900000E-01   1.00800           0
     13944 MEMB     113      DOPE     H15S     HAL2     0.900000E-01   1.00800           0
     13945 MEMB     113      DOPE     C216     CTL2    -0.180000       12.0110           0
     13946 MEMB     113      DOPE     H16R     HAL2     0.900000E-01   1.00800           0
     13947 MEMB     113      DOPE     H16S     HAL2     0.900000E-01   1.00800           0
     13948 MEMB     113      DOPE     C217     CTL2    -0.180000       12.0110           0
     13949 MEMB     113      DOPE     H17R     HAL2     0.900000E-01   1.00800           0
     13950 MEMB     113      DOPE     H17S     HAL2     0.900000E-01   1.00800           0
     13951 MEMB     113      DOPE     C218     CTL3    -0.270000       12.0110           0
     13952 MEMB     113      DOPE     H18R     HAL3     0.900000E-01   1.00800           0
     13953 MEMB     113      DOPE     H18S     HAL3     0.900000E-01   1.00800           0
     13954 MEMB     113      DOPE     H18T     HAL3     0.900000E-01   1.00800           0
     13955 MEMB     113      DOPE     C33      CTL2    -0.180000       12.0110           0
     13956 MEMB     113      DOPE     H3X      HAL2     0.900000E-01   1.00800           0
     13957 MEMB     113      DOPE     H3Y      HAL2     0.900000E-01   1.00800           0
     13958 MEMB     113      DOPE     C34      CTL2    -0.180000       12.0110           0
     13959 MEMB     113      DOPE     H4X      HAL2     0.900000E-01   1.00800           0
     13960 MEMB     113      DOPE     H4Y      HAL2     0.900000E-01   1.00800           0
     13961 MEMB     113      DOPE     C35      CTL2    -0.180000       12.0110           0
     13962 MEMB     113      DOPE     H5X      HAL2     0.900000E-01   1.00800           0
     13963 MEMB     113      DOPE     H5Y      HAL2     0.900000E-01   1.00800           0
     13964 MEMB     113      DOPE     C36      CTL2    -0.180000       12.0110           0
     13965 MEMB     113      DOPE     H6X      HAL2     0.900000E-01   1.00800           0
     13966 MEMB     113      DOPE     H6Y      HAL2     0.900000E-01   1.00800           0
     13967 MEMB     113      DOPE     C37      CTL2    -0.180000       12.0110           0
     13968 MEMB     113      DOPE     H7X      HAL2     0.900000E-01   1.00800           0
     13969 MEMB     113      DOPE     H7Y      HAL2     0.900000E-01   1.00800           0
     13970 MEMB     113      DOPE     C38      CTL2    -0.180000       12.0110           0
     13971 MEMB     113      DOPE     H8X      HAL2     0.900000E-01   1.00800           0
     13972 MEMB     113      DOPE     H8Y      HAL2     0.900000E-01   1.00800           0
     13973 MEMB     113      DOPE     C39      CEL1    -0.150000       12.0110           0
     13974 MEMB     113      DOPE     H9X      HEL1     0.150000       1.00800           0
     13975 MEMB     113      DOPE     C310     CEL1    -0.150000       12.0110           0
     13976 MEMB     113      DOPE     H10X     HEL1     0.150000       1.00800           0
     13977 MEMB     113      DOPE     C311     CTL2    -0.180000       12.0110           0
     13978 MEMB     113      DOPE     H11X     HAL2     0.900000E-01   1.00800           0
     13979 MEMB     113      DOPE     H11Y     HAL2     0.900000E-01   1.00800           0
     13980 MEMB     113      DOPE     C312     CTL2    -0.180000       12.0110           0
     13981 MEMB     113      DOPE     H12X     HAL2     0.900000E-01   1.00800           0
     13982 MEMB     113      DOPE     H12Y     HAL2     0.900000E-01   1.00800           0
     13983 MEMB     113      DOPE     C313     CTL2    -0.180000       12.0110           0
     13984 MEMB     113      DOPE     H13X     HAL2     0.900000E-01   1.00800           0
     13985 MEMB     113      DOPE     H13Y     HAL2     0.900000E-01   1.00800           0
     13986 MEMB     113      DOPE     C314     CTL2    -0.180000       12.0110           0
     13987 MEMB     113      DOPE     H14X     HAL2     0.900000E-01   1.00800           0
     13988 MEMB     113      DOPE     H14Y     HAL2     0.900000E-01   1.00800           0
     13989 MEMB     113      DOPE     C315     CTL2    -0.180000       12.0110           0
     13990 MEMB     113      DOPE     H15X     HAL2     0.900000E-01   1.00800           0
     13991 MEMB     113      DOPE     H15Y     HAL2     0.900000E-01   1.00800           0
     13992 MEMB     113      DOPE     C316     CTL2    -0.180000       12.0110           0
     13993 MEMB     113      DOPE     H16X     HAL2     0.900000E-01   1.00800           0
     13994 MEMB     113      DOPE     H16Y     HAL2     0.900000E-01   1.00800           0
     13995 MEMB     113      DOPE     C317     CTL2    -0.180000       12.0110           0
     13996 MEMB     113      DOPE     H17X     HAL2     0.900000E-01   1.00800           0
     13997 MEMB     113      DOPE     H17Y     HAL2     0.900000E-01   1.00800           0
     13998 MEMB     113      DOPE     C318     CTL3    -0.270000       12.0110           0
     13999 MEMB     113      DOPE     H18X     HAL3     0.900000E-01   1.00800           0
     14000 MEMB     113      DOPE     H18Y     HAL3     0.900000E-01   1.00800           0
     14001 MEMB     113      DOPE     H18Z     HAL3     0.900000E-01   1.00800           0
     14002 MEMB     114      CHL1     C3       CRL1     0.140000       12.0110           0
     14003 MEMB     114      CHL1     H3       HGA1     0.900000E-01   1.00800           0
     14004 MEMB     114      CHL1     O3       OHL     -0.660000       15.9994           0
     14005 MEMB     114      CHL1     H3'      HOL      0.430000       1.00800           0
     14006 MEMB     114      CHL1     C4       CRL2    -0.180000       12.0110           0
     14007 MEMB     114      CHL1     H4A      HGA2     0.900000E-01   1.00800           0
     14008 MEMB     114      CHL1     H4B      HGA2     0.900000E-01   1.00800           0
     14009 MEMB     114      CHL1     C5       CEL1      0.00000       12.0110           0
     14010 MEMB     114      CHL1     C6       CEL1    -0.150000       12.0110           0
     14011 MEMB     114      CHL1     H6       HEL1     0.150000       1.00800           0
     14012 MEMB     114      CHL1     C7       CRL2    -0.180000       12.0110           0
     14013 MEMB     114      CHL1     H7A      HGA2     0.900000E-01   1.00800           0
     14014 MEMB     114      CHL1     H7B      HGA2     0.900000E-01   1.00800           0
     14015 MEMB     114      CHL1     C8       CRL1    -0.900000E-01   12.0110           0
     14016 MEMB     114      CHL1     H8       HGA1     0.900000E-01   1.00800           0
     14017 MEMB     114      CHL1     C14      CRL1    -0.900000E-01   12.0110           0
     14018 MEMB     114      CHL1     H14      HGA1     0.900000E-01   1.00800           0
     14019 MEMB     114      CHL1     C15      CRL2    -0.180000       12.0110           0
     14020 MEMB     114      CHL1     H15A     HGA2     0.900000E-01   1.00800           0
     14021 MEMB     114      CHL1     H15B     HGA2     0.900000E-01   1.00800           0
     14022 MEMB     114      CHL1     C16      CRL2    -0.180000       12.0110           0
     14023 MEMB     114      CHL1     H16A     HGA2     0.900000E-01   1.00800           0
     14024 MEMB     114      CHL1     H16B     HGA2     0.900000E-01   1.00800           0
     14025 MEMB     114      CHL1     C17      CRL1    -0.900000E-01   12.0110           0
     14026 MEMB     114      CHL1     H17      HGA1     0.900000E-01   1.00800           0
     14027 MEMB     114      CHL1     C13      CRL1      0.00000       12.0110           0
     14028 MEMB     114      CHL1     C18      CTL3    -0.270000       12.0110           0
     14029 MEMB     114      CHL1     H18A     HAL3     0.900000E-01   1.00800           0
     14030 MEMB     114      CHL1     H18B     HAL3     0.900000E-01   1.00800           0
     14031 MEMB     114      CHL1     H18C     HAL3     0.900000E-01   1.00800           0
     14032 MEMB     114      CHL1     C12      CRL2    -0.180000       12.0110           0
     14033 MEMB     114      CHL1     H12A     HGA2     0.900000E-01   1.00800           0
     14034 MEMB     114      CHL1     H12B     HGA2     0.900000E-01   1.00800           0
     14035 MEMB     114      CHL1     C11      CRL2    -0.180000       12.0110           0
     14036 MEMB     114      CHL1     H11A     HGA2     0.900000E-01   1.00800           0
     14037 MEMB     114      CHL1     H11B     HGA2     0.900000E-01   1.00800           0
     14038 MEMB     114      CHL1     C9       CRL1    -0.900000E-01   12.0110           0
     14039 MEMB     114      CHL1     H9       HGA1     0.900000E-01   1.00800           0
     14040 MEMB     114      CHL1     C10      CRL1      0.00000       12.0110           0
     14041 MEMB     114      CHL1     C19      CTL3    -0.270000       12.0110           0
     14042 MEMB     114      CHL1     H19A     HAL3     0.900000E-01   1.00800           0
     14043 MEMB     114      CHL1     H19B     HAL3     0.900000E-01   1.00800           0
     14044 MEMB     114      CHL1     H19C     HAL3     0.900000E-01   1.00800           0
     14045 MEMB     114      CHL1     C1       CRL2    -0.180000       12.0110           0
     14046 MEMB     114      CHL1     H1A      HGA2     0.900000E-01   1.00800           0
     14047 MEMB     114      CHL1     H1B      HGA2     0.900000E-01   1.00800           0
     14048 MEMB     114      CHL1     C2       CRL2    -0.180000       12.0110           0
     14049 MEMB     114      CHL1     H2A      HGA2     0.900000E-01   1.00800           0
     14050 MEMB     114      CHL1     H2B      HGA2     0.900000E-01   1.00800           0
     14051 MEMB     114      CHL1     C20      CTL1    -0.900000E-01   12.0110           0
     14052 MEMB     114      CHL1     H20      HAL1     0.900000E-01   1.00800           0
     14053 MEMB     114      CHL1     C21      CTL3    -0.270000       12.0110           0
     14054 MEMB     114      CHL1     H21A     HAL3     0.900000E-01   1.00800           0
     14055 MEMB     114      CHL1     H21B     HAL3     0.900000E-01   1.00800           0
     14056 MEMB     114      CHL1     H21C     HAL3     0.900000E-01   1.00800           0
     14057 MEMB     114      CHL1     C22      CTL2    -0.180000       12.0110           0
     14058 MEMB     114      CHL1     H22A     HAL2     0.900000E-01   1.00800           0
     14059 MEMB     114      CHL1     H22B     HAL2     0.900000E-01   1.00800           0
     14060 MEMB     114      CHL1     C23      CTL2    -0.180000       12.0110           0
     14061 MEMB     114      CHL1     H23A     HAL2     0.900000E-01   1.00800           0
     14062 MEMB     114      CHL1     H23B     HAL2     0.900000E-01   1.00800           0
     14063 MEMB     114      CHL1     C24      CTL2    -0.180000       12.0110           0
     14064 MEMB     114      CHL1     H24A     HAL2     0.900000E-01   1.00800           0
     14065 MEMB     114      CHL1     H24B     HAL2     0.900000E-01   1.00800           0
     14066 MEMB     114      CHL1     C25      CTL1    -0.900000E-01   12.0110           0
     14067 MEMB     114      CHL1     H25      HAL1     0.900000E-01   1.00800           0
     14068 MEMB     114      CHL1     C26      CTL3    -0.270000       12.0110           0
     14069 MEMB     114      CHL1     H26A     HAL3     0.900000E-01   1.00800           0
     14070 MEMB     114      CHL1     H26B     HAL3     0.900000E-01   1.00800           0
     14071 MEMB     114      CHL1     H26C     HAL3     0.900000E-01   1.00800           0
     14072 MEMB     114      CHL1     C27      CTL3    -0.270000       12.0110           0
     14073 MEMB     114      CHL1     H27A     HAL3     0.900000E-01   1.00800           0
     14074 MEMB     114      CHL1     H27B     HAL3     0.900000E-01   1.00800           0
     14075 MEMB     114      CHL1     H27C     HAL3     0.900000E-01   1.00800           0
     14076 MEMB     115      DOPE     N        NH3L    -0.300000       14.0070           0
     14077 MEMB     115      DOPE     HN1      HCL      0.330000       1.00800           0
     14078 MEMB     115      DOPE     HN2      HCL      0.330000       1.00800           0
     14079 MEMB     115      DOPE     HN3      HCL      0.330000       1.00800           0
     14080 MEMB     115      DOPE     C12      CTL2     0.130000       12.0110           0
     14081 MEMB     115      DOPE     H12A     HAL2     0.900000E-01   1.00800           0
     14082 MEMB     115      DOPE     H12B     HAL2     0.900000E-01   1.00800           0
     14083 MEMB     115      DOPE     C11      CTL2    -0.800000E-01   12.0110           0
     14084 MEMB     115      DOPE     H11A     HAL2     0.900000E-01   1.00800           0
     14085 MEMB     115      DOPE     H11B     HAL2     0.900000E-01   1.00800           0
     14086 MEMB     115      DOPE     P        PL        1.50000       30.9740           0
     14087 MEMB     115      DOPE     O13      O2L     -0.780000       15.9994           0
     14088 MEMB     115      DOPE     O14      O2L     -0.780000       15.9994           0
     14089 MEMB     115      DOPE     O11      OSLP    -0.570000       15.9994           0
     14090 MEMB     115      DOPE     O12      OSLP    -0.570000       15.9994           0
     14091 MEMB     115      DOPE     C1       CTL2    -0.800000E-01   12.0110           0
     14092 MEMB     115      DOPE     HA       HAL2     0.900000E-01   1.00800           0
     14093 MEMB     115      DOPE     HB       HAL2     0.900000E-01   1.00800           0
     14094 MEMB     115      DOPE     C2       CTL1     0.170000       12.0110           0
     14095 MEMB     115      DOPE     HS       HAL1     0.900000E-01   1.00800           0
     14096 MEMB     115      DOPE     O21      OSL     -0.490000       15.9994           0
     14097 MEMB     115      DOPE     C21      CL       0.900000       12.0110           0
     14098 MEMB     115      DOPE     O22      OBL     -0.630000       15.9994           0
     14099 MEMB     115      DOPE     C22      CTL2    -0.220000       12.0110           0
     14100 MEMB     115      DOPE     H2R      HAL2     0.900000E-01   1.00800           0
     14101 MEMB     115      DOPE     H2S      HAL2     0.900000E-01   1.00800           0
     14102 MEMB     115      DOPE     C3       CTL2     0.800000E-01   12.0110           0
     14103 MEMB     115      DOPE     HX       HAL2     0.900000E-01   1.00800           0
     14104 MEMB     115      DOPE     HY       HAL2     0.900000E-01   1.00800           0
     14105 MEMB     115      DOPE     O31      OSL     -0.490000       15.9994           0
     14106 MEMB     115      DOPE     C31      CL       0.900000       12.0110           0
     14107 MEMB     115      DOPE     O32      OBL     -0.630000       15.9994           0
     14108 MEMB     115      DOPE     C32      CTL2    -0.220000       12.0110           0
     14109 MEMB     115      DOPE     H2X      HAL2     0.900000E-01   1.00800           0
     14110 MEMB     115      DOPE     H2Y      HAL2     0.900000E-01   1.00800           0
     14111 MEMB     115      DOPE     C23      CTL2    -0.180000       12.0110           0
     14112 MEMB     115      DOPE     H3R      HAL2     0.900000E-01   1.00800           0
     14113 MEMB     115      DOPE     H3S      HAL2     0.900000E-01   1.00800           0
     14114 MEMB     115      DOPE     C24      CTL2    -0.180000       12.0110           0
     14115 MEMB     115      DOPE     H4R      HAL2     0.900000E-01   1.00800           0
     14116 MEMB     115      DOPE     H4S      HAL2     0.900000E-01   1.00800           0
     14117 MEMB     115      DOPE     C25      CTL2    -0.180000       12.0110           0
     14118 MEMB     115      DOPE     H5R      HAL2     0.900000E-01   1.00800           0
     14119 MEMB     115      DOPE     H5S      HAL2     0.900000E-01   1.00800           0
     14120 MEMB     115      DOPE     C26      CTL2    -0.180000       12.0110           0
     14121 MEMB     115      DOPE     H6R      HAL2     0.900000E-01   1.00800           0
     14122 MEMB     115      DOPE     H6S      HAL2     0.900000E-01   1.00800           0
     14123 MEMB     115      DOPE     C27      CTL2    -0.180000       12.0110           0
     14124 MEMB     115      DOPE     H7R      HAL2     0.900000E-01   1.00800           0
     14125 MEMB     115      DOPE     H7S      HAL2     0.900000E-01   1.00800           0
     14126 MEMB     115      DOPE     C28      CTL2    -0.180000       12.0110           0
     14127 MEMB     115      DOPE     H8R      HAL2     0.900000E-01   1.00800           0
     14128 MEMB     115      DOPE     H8S      HAL2     0.900000E-01   1.00800           0
     14129 MEMB     115      DOPE     C29      CEL1    -0.150000       12.0110           0
     14130 MEMB     115      DOPE     H9R      HEL1     0.150000       1.00800           0
     14131 MEMB     115      DOPE     C210     CEL1    -0.150000       12.0110           0
     14132 MEMB     115      DOPE     H10R     HEL1     0.150000       1.00800           0
     14133 MEMB     115      DOPE     C211     CTL2    -0.180000       12.0110           0
     14134 MEMB     115      DOPE     H11R     HAL2     0.900000E-01   1.00800           0
     14135 MEMB     115      DOPE     H11S     HAL2     0.900000E-01   1.00800           0
     14136 MEMB     115      DOPE     C212     CTL2    -0.180000       12.0110           0
     14137 MEMB     115      DOPE     H12R     HAL2     0.900000E-01   1.00800           0
     14138 MEMB     115      DOPE     H12S     HAL2     0.900000E-01   1.00800           0
     14139 MEMB     115      DOPE     C213     CTL2    -0.180000       12.0110           0
     14140 MEMB     115      DOPE     H13R     HAL2     0.900000E-01   1.00800           0
     14141 MEMB     115      DOPE     H13S     HAL2     0.900000E-01   1.00800           0
     14142 MEMB     115      DOPE     C214     CTL2    -0.180000       12.0110           0
     14143 MEMB     115      DOPE     H14R     HAL2     0.900000E-01   1.00800           0
     14144 MEMB     115      DOPE     H14S     HAL2     0.900000E-01   1.00800           0
     14145 MEMB     115      DOPE     C215     CTL2    -0.180000       12.0110           0
     14146 MEMB     115      DOPE     H15R     HAL2     0.900000E-01   1.00800           0
     14147 MEMB     115      DOPE     H15S     HAL2     0.900000E-01   1.00800           0
     14148 MEMB     115      DOPE     C216     CTL2    -0.180000       12.0110           0
     14149 MEMB     115      DOPE     H16R     HAL2     0.900000E-01   1.00800           0
     14150 MEMB     115      DOPE     H16S     HAL2     0.900000E-01   1.00800           0
     14151 MEMB     115      DOPE     C217     CTL2    -0.180000       12.0110           0
     14152 MEMB     115      DOPE     H17R     HAL2     0.900000E-01   1.00800           0
     14153 MEMB     115      DOPE     H17S     HAL2     0.900000E-01   1.00800           0
     14154 MEMB     115      DOPE     C218     CTL3    -0.270000       12.0110           0
     14155 MEMB     115      DOPE     H18R     HAL3     0.900000E-01   1.00800           0
     14156 MEMB     115      DOPE     H18S     HAL3     0.900000E-01   1.00800           0
     14157 MEMB     115      DOPE     H18T     HAL3     0.900000E-01   1.00800           0
     14158 MEMB     115      DOPE     C33      CTL2    -0.180000       12.0110           0
     14159 MEMB     115      DOPE     H3X      HAL2     0.900000E-01   1.00800           0
     14160 MEMB     115      DOPE     H3Y      HAL2     0.900000E-01   1.00800           0
     14161 MEMB     115      DOPE     C34      CTL2    -0.180000       12.0110           0
     14162 MEMB     115      DOPE     H4X      HAL2     0.900000E-01   1.00800           0
     14163 MEMB     115      DOPE     H4Y      HAL2     0.900000E-01   1.00800           0
     14164 MEMB     115      DOPE     C35      CTL2    -0.180000       12.0110           0
     14165 MEMB     115      DOPE     H5X      HAL2     0.900000E-01   1.00800           0
     14166 MEMB     115      DOPE     H5Y      HAL2     0.900000E-01   1.00800           0
     14167 MEMB     115      DOPE     C36      CTL2    -0.180000       12.0110           0
     14168 MEMB     115      DOPE     H6X      HAL2     0.900000E-01   1.00800           0
     14169 MEMB     115      DOPE     H6Y      HAL2     0.900000E-01   1.00800           0
     14170 MEMB     115      DOPE     C37      CTL2    -0.180000       12.0110           0
     14171 MEMB     115      DOPE     H7X      HAL2     0.900000E-01   1.00800           0
     14172 MEMB     115      DOPE     H7Y      HAL2     0.900000E-01   1.00800           0
     14173 MEMB     115      DOPE     C38      CTL2    -0.180000       12.0110           0
     14174 MEMB     115      DOPE     H8X      HAL2     0.900000E-01   1.00800           0
     14175 MEMB     115      DOPE     H8Y      HAL2     0.900000E-01   1.00800           0
     14176 MEMB     115      DOPE     C39      CEL1    -0.150000       12.0110           0
     14177 MEMB     115      DOPE     H9X      HEL1     0.150000       1.00800           0
     14178 MEMB     115      DOPE     C310     CEL1    -0.150000       12.0110           0
     14179 MEMB     115      DOPE     H10X     HEL1     0.150000       1.00800           0
     14180 MEMB     115      DOPE     C311     CTL2    -0.180000       12.0110           0
     14181 MEMB     115      DOPE     H11X     HAL2     0.900000E-01   1.00800           0
     14182 MEMB     115      DOPE     H11Y     HAL2     0.900000E-01   1.00800           0
     14183 MEMB     115      DOPE     C312     CTL2    -0.180000       12.0110           0
     14184 MEMB     115      DOPE     H12X     HAL2     0.900000E-01   1.00800           0
     14185 MEMB     115      DOPE     H12Y     HAL2     0.900000E-01   1.00800           0
     14186 MEMB     115      DOPE     C313     CTL2    -0.180000       12.0110           0
     14187 MEMB     115      DOPE     H13X     HAL2     0.900000E-01   1.00800           0
     14188 MEMB     115      DOPE     H13Y     HAL2     0.900000E-01   1.00800           0
     14189 MEMB     115      DOPE     C314     CTL2    -0.180000       12.0110           0
     14190 MEMB     115      DOPE     H14X     HAL2     0.900000E-01   1.00800           0
     14191 MEMB     115      DOPE     H14Y     HAL2     0.900000E-01   1.00800           0
     14192 MEMB     115      DOPE     C315     CTL2    -0.180000       12.0110           0
     14193 MEMB     115      DOPE     H15X     HAL2     0.900000E-01   1.00800           0
     14194 MEMB     115      DOPE     H15Y     HAL2     0.900000E-01   1.00800           0
     14195 MEMB     115      DOPE     C316     CTL2    -0.180000       12.0110           0
     14196 MEMB     115      DOPE     H16X     HAL2     0.900000E-01   1.00800           0
     14197 MEMB     115      DOPE     H16Y     HAL2     0.900000E-01   1.00800           0
     14198 MEMB     115      DOPE     C317     CTL2    -0.180000       12.0110           0
     14199 MEMB     115      DOPE     H17X     HAL2     0.900000E-01   1.00800           0
     14200 MEMB     115      DOPE     H17Y     HAL2     0.900000E-01   1.00800           0
     14201 MEMB     115      DOPE     C318     CTL3    -0.270000       12.0110           0
     14202 MEMB     115      DOPE     H18X     HAL3     0.900000E-01   1.00800           0
     14203 MEMB     115      DOPE     H18Y     HAL3     0.900000E-01   1.00800           0
     14204 MEMB     115      DOPE     H18Z     HAL3     0.900000E-01   1.00800           0
     14205 MEMB     116      CHL1     C3       CRL1     0.140000       12.0110           0
     14206 MEMB     116      CHL1     H3       HGA1     0.900000E-01   1.00800           0
     14207 MEMB     116      CHL1     O3       OHL     -0.660000       15.9994           0
     14208 MEMB     116      CHL1     H3'      HOL      0.430000       1.00800           0
     14209 MEMB     116      CHL1     C4       CRL2    -0.180000       12.0110           0
     14210 MEMB     116      CHL1     H4A      HGA2     0.900000E-01   1.00800           0
     14211 MEMB     116      CHL1     H4B      HGA2     0.900000E-01   1.00800           0
     14212 MEMB     116      CHL1     C5       CEL1      0.00000       12.0110           0
     14213 MEMB     116      CHL1     C6       CEL1    -0.150000       12.0110           0
     14214 MEMB     116      CHL1     H6       HEL1     0.150000       1.00800           0
     14215 MEMB     116      CHL1     C7       CRL2    -0.180000       12.0110           0
     14216 MEMB     116      CHL1     H7A      HGA2     0.900000E-01   1.00800           0
     14217 MEMB     116      CHL1     H7B      HGA2     0.900000E-01   1.00800           0
     14218 MEMB     116      CHL1     C8       CRL1    -0.900000E-01   12.0110           0
     14219 MEMB     116      CHL1     H8       HGA1     0.900000E-01   1.00800           0
     14220 MEMB     116      CHL1     C14      CRL1    -0.900000E-01   12.0110           0
     14221 MEMB     116      CHL1     H14      HGA1     0.900000E-01   1.00800           0
     14222 MEMB     116      CHL1     C15      CRL2    -0.180000       12.0110           0
     14223 MEMB     116      CHL1     H15A     HGA2     0.900000E-01   1.00800           0
     14224 MEMB     116      CHL1     H15B     HGA2     0.900000E-01   1.00800           0
     14225 MEMB     116      CHL1     C16      CRL2    -0.180000       12.0110           0
     14226 MEMB     116      CHL1     H16A     HGA2     0.900000E-01   1.00800           0
     14227 MEMB     116      CHL1     H16B     HGA2     0.900000E-01   1.00800           0
     14228 MEMB     116      CHL1     C17      CRL1    -0.900000E-01   12.0110           0
     14229 MEMB     116      CHL1     H17      HGA1     0.900000E-01   1.00800           0
     14230 MEMB     116      CHL1     C13      CRL1      0.00000       12.0110           0
     14231 MEMB     116      CHL1     C18      CTL3    -0.270000       12.0110           0
     14232 MEMB     116      CHL1     H18A     HAL3     0.900000E-01   1.00800           0
     14233 MEMB     116      CHL1     H18B     HAL3     0.900000E-01   1.00800           0
     14234 MEMB     116      CHL1     H18C     HAL3     0.900000E-01   1.00800           0
     14235 MEMB     116      CHL1     C12      CRL2    -0.180000       12.0110           0
     14236 MEMB     116      CHL1     H12A     HGA2     0.900000E-01   1.00800           0
     14237 MEMB     116      CHL1     H12B     HGA2     0.900000E-01   1.00800           0
     14238 MEMB     116      CHL1     C11      CRL2    -0.180000       12.0110           0
     14239 MEMB     116      CHL1     H11A     HGA2     0.900000E-01   1.00800           0
     14240 MEMB     116      CHL1     H11B     HGA2     0.900000E-01   1.00800           0
     14241 MEMB     116      CHL1     C9       CRL1    -0.900000E-01   12.0110           0
     14242 MEMB     116      CHL1     H9       HGA1     0.900000E-01   1.00800           0
     14243 MEMB     116      CHL1     C10      CRL1      0.00000       12.0110           0
     14244 MEMB     116      CHL1     C19      CTL3    -0.270000       12.0110           0
     14245 MEMB     116      CHL1     H19A     HAL3     0.900000E-01   1.00800           0
     14246 MEMB     116      CHL1     H19B     HAL3     0.900000E-01   1.00800           0
     14247 MEMB     116      CHL1     H19C     HAL3     0.900000E-01   1.00800           0
     14248 MEMB     116      CHL1     C1       CRL2    -0.180000       12.0110           0
     14249 MEMB     116      CHL1     H1A      HGA2     0.900000E-01   1.00800           0
     14250 MEMB     116      CHL1     H1B      HGA2     0.900000E-01   1.00800           0
     14251 MEMB     116      CHL1     C2       CRL2    -0.180000       12.0110           0
     14252 MEMB     116      CHL1     H2A      HGA2     0.900000E-01   1.00800           0
     14253 MEMB     116      CHL1     H2B      HGA2     0.900000E-01   1.00800           0
     14254 MEMB     116      CHL1     C20      CTL1    -0.900000E-01   12.0110           0
     14255 MEMB     116      CHL1     H20      HAL1     0.900000E-01   1.00800           0
     14256 MEMB     116      CHL1     C21      CTL3    -0.270000       12.0110           0
     14257 MEMB     116      CHL1     H21A     HAL3     0.900000E-01   1.00800           0
     14258 MEMB     116      CHL1     H21B     HAL3     0.900000E-01   1.00800           0
     14259 MEMB     116      CHL1     H21C     HAL3     0.900000E-01   1.00800           0
     14260 MEMB     116      CHL1     C22      CTL2    -0.180000       12.0110           0
     14261 MEMB     116      CHL1     H22A     HAL2     0.900000E-01   1.00800           0
     14262 MEMB     116      CHL1     H22B     HAL2     0.900000E-01   1.00800           0
     14263 MEMB     116      CHL1     C23      CTL2    -0.180000       12.0110           0
     14264 MEMB     116      CHL1     H23A     HAL2     0.900000E-01   1.00800           0
     14265 MEMB     116      CHL1     H23B     HAL2     0.900000E-01   1.00800           0
     14266 MEMB     116      CHL1     C24      CTL2    -0.180000       12.0110           0
     14267 MEMB     116      CHL1     H24A     HAL2     0.900000E-01   1.00800           0
     14268 MEMB     116      CHL1     H24B     HAL2     0.900000E-01   1.00800           0
     14269 MEMB     116      CHL1     C25      CTL1    -0.900000E-01   12.0110           0
     14270 MEMB     116      CHL1     H25      HAL1     0.900000E-01   1.00800           0
     14271 MEMB     116      CHL1     C26      CTL3    -0.270000       12.0110           0
     14272 MEMB     116      CHL1     H26A     HAL3     0.900000E-01   1.00800           0
     14273 MEMB     116      CHL1     H26B     HAL3     0.900000E-01   1.00800           0
     14274 MEMB     116      CHL1     H26C     HAL3     0.900000E-01   1.00800           0
     14275 MEMB     116      CHL1     C27      CTL3    -0.270000       12.0110           0
     14276 MEMB     116      CHL1     H27A     HAL3     0.900000E-01   1.00800           0
     14277 MEMB     116      CHL1     H27B     HAL3     0.900000E-01   1.00800           0
     14278 MEMB     116      CHL1     H27C     HAL3     0.900000E-01   1.00800           0
     14279 MEMB     117      DOPE     N        NH3L    -0.300000       14.0070           0
     14280 MEMB     117      DOPE     HN1      HCL      0.330000       1.00800           0
     14281 MEMB     117      DOPE     HN2      HCL      0.330000       1.00800           0
     14282 MEMB     117      DOPE     HN3      HCL      0.330000       1.00800           0
     14283 MEMB     117      DOPE     C12      CTL2     0.130000       12.0110           0
     14284 MEMB     117      DOPE     H12A     HAL2     0.900000E-01   1.00800           0
     14285 MEMB     117      DOPE     H12B     HAL2     0.900000E-01   1.00800           0
     14286 MEMB     117      DOPE     C11      CTL2    -0.800000E-01   12.0110           0
     14287 MEMB     117      DOPE     H11A     HAL2     0.900000E-01   1.00800           0
     14288 MEMB     117      DOPE     H11B     HAL2     0.900000E-01   1.00800           0
     14289 MEMB     117      DOPE     P        PL        1.50000       30.9740           0
     14290 MEMB     117      DOPE     O13      O2L     -0.780000       15.9994           0
     14291 MEMB     117      DOPE     O14      O2L     -0.780000       15.9994           0
     14292 MEMB     117      DOPE     O11      OSLP    -0.570000       15.9994           0
     14293 MEMB     117      DOPE     O12      OSLP    -0.570000       15.9994           0
     14294 MEMB     117      DOPE     C1       CTL2    -0.800000E-01   12.0110           0
     14295 MEMB     117      DOPE     HA       HAL2     0.900000E-01   1.00800           0
     14296 MEMB     117      DOPE     HB       HAL2     0.900000E-01   1.00800           0
     14297 MEMB     117      DOPE     C2       CTL1     0.170000       12.0110           0
     14298 MEMB     117      DOPE     HS       HAL1     0.900000E-01   1.00800           0
     14299 MEMB     117      DOPE     O21      OSL     -0.490000       15.9994           0
     14300 MEMB     117      DOPE     C21      CL       0.900000       12.0110           0
     14301 MEMB     117      DOPE     O22      OBL     -0.630000       15.9994           0
     14302 MEMB     117      DOPE     C22      CTL2    -0.220000       12.0110           0
     14303 MEMB     117      DOPE     H2R      HAL2     0.900000E-01   1.00800           0
     14304 MEMB     117      DOPE     H2S      HAL2     0.900000E-01   1.00800           0
     14305 MEMB     117      DOPE     C3       CTL2     0.800000E-01   12.0110           0
     14306 MEMB     117      DOPE     HX       HAL2     0.900000E-01   1.00800           0
     14307 MEMB     117      DOPE     HY       HAL2     0.900000E-01   1.00800           0
     14308 MEMB     117      DOPE     O31      OSL     -0.490000       15.9994           0
     14309 MEMB     117      DOPE     C31      CL       0.900000       12.0110           0
     14310 MEMB     117      DOPE     O32      OBL     -0.630000       15.9994           0
     14311 MEMB     117      DOPE     C32      CTL2    -0.220000       12.0110           0
     14312 MEMB     117      DOPE     H2X      HAL2     0.900000E-01   1.00800           0
     14313 MEMB     117      DOPE     H2Y      HAL2     0.900000E-01   1.00800           0
     14314 MEMB     117      DOPE     C23      CTL2    -0.180000       12.0110           0
     14315 MEMB     117      DOPE     H3R      HAL2     0.900000E-01   1.00800           0
     14316 MEMB     117      DOPE     H3S      HAL2     0.900000E-01   1.00800           0
     14317 MEMB     117      DOPE     C24      CTL2    -0.180000       12.0110           0
     14318 MEMB     117      DOPE     H4R      HAL2     0.900000E-01   1.00800           0
     14319 MEMB     117      DOPE     H4S      HAL2     0.900000E-01   1.00800           0
     14320 MEMB     117      DOPE     C25      CTL2    -0.180000       12.0110           0
     14321 MEMB     117      DOPE     H5R      HAL2     0.900000E-01   1.00800           0
     14322 MEMB     117      DOPE     H5S      HAL2     0.900000E-01   1.00800           0
     14323 MEMB     117      DOPE     C26      CTL2    -0.180000       12.0110           0
     14324 MEMB     117      DOPE     H6R      HAL2     0.900000E-01   1.00800           0
     14325 MEMB     117      DOPE     H6S      HAL2     0.900000E-01   1.00800           0
     14326 MEMB     117      DOPE     C27      CTL2    -0.180000       12.0110           0
     14327 MEMB     117      DOPE     H7R      HAL2     0.900000E-01   1.00800           0
     14328 MEMB     117      DOPE     H7S      HAL2     0.900000E-01   1.00800           0
     14329 MEMB     117      DOPE     C28      CTL2    -0.180000       12.0110           0
     14330 MEMB     117      DOPE     H8R      HAL2     0.900000E-01   1.00800           0
     14331 MEMB     117      DOPE     H8S      HAL2     0.900000E-01   1.00800           0
     14332 MEMB     117      DOPE     C29      CEL1    -0.150000       12.0110           0
     14333 MEMB     117      DOPE     H9R      HEL1     0.150000       1.00800           0
     14334 MEMB     117      DOPE     C210     CEL1    -0.150000       12.0110           0
     14335 MEMB     117      DOPE     H10R     HEL1     0.150000       1.00800           0
     14336 MEMB     117      DOPE     C211     CTL2    -0.180000       12.0110           0
     14337 MEMB     117      DOPE     H11R     HAL2     0.900000E-01   1.00800           0
     14338 MEMB     117      DOPE     H11S     HAL2     0.900000E-01   1.00800           0
     14339 MEMB     117      DOPE     C212     CTL2    -0.180000       12.0110           0
     14340 MEMB     117      DOPE     H12R     HAL2     0.900000E-01   1.00800           0
     14341 MEMB     117      DOPE     H12S     HAL2     0.900000E-01   1.00800           0
     14342 MEMB     117      DOPE     C213     CTL2    -0.180000       12.0110           0
     14343 MEMB     117      DOPE     H13R     HAL2     0.900000E-01   1.00800           0
     14344 MEMB     117      DOPE     H13S     HAL2     0.900000E-01   1.00800           0
     14345 MEMB     117      DOPE     C214     CTL2    -0.180000       12.0110           0
     14346 MEMB     117      DOPE     H14R     HAL2     0.900000E-01   1.00800           0
     14347 MEMB     117      DOPE     H14S     HAL2     0.900000E-01   1.00800           0
     14348 MEMB     117      DOPE     C215     CTL2    -0.180000       12.0110           0
     14349 MEMB     117      DOPE     H15R     HAL2     0.900000E-01   1.00800           0
     14350 MEMB     117      DOPE     H15S     HAL2     0.900000E-01   1.00800           0
     14351 MEMB     117      DOPE     C216     CTL2    -0.180000       12.0110           0
     14352 MEMB     117      DOPE     H16R     HAL2     0.900000E-01   1.00800           0
     14353 MEMB     117      DOPE     H16S     HAL2     0.900000E-01   1.00800           0
     14354 MEMB     117      DOPE     C217     CTL2    -0.180000       12.0110           0
     14355 MEMB     117      DOPE     H17R     HAL2     0.900000E-01   1.00800           0
     14356 MEMB     117      DOPE     H17S     HAL2     0.900000E-01   1.00800           0
     14357 MEMB     117      DOPE     C218     CTL3    -0.270000       12.0110           0
     14358 MEMB     117      DOPE     H18R     HAL3     0.900000E-01   1.00800           0
     14359 MEMB     117      DOPE     H18S     HAL3     0.900000E-01   1.00800           0
     14360 MEMB     117      DOPE     H18T     HAL3     0.900000E-01   1.00800           0
     14361 MEMB     117      DOPE     C33      CTL2    -0.180000       12.0110           0
     14362 MEMB     117      DOPE     H3X      HAL2     0.900000E-01   1.00800           0
     14363 MEMB     117      DOPE     H3Y      HAL2     0.900000E-01   1.00800           0
     14364 MEMB     117      DOPE     C34      CTL2    -0.180000       12.0110           0
     14365 MEMB     117      DOPE     H4X      HAL2     0.900000E-01   1.00800           0
     14366 MEMB     117      DOPE     H4Y      HAL2     0.900000E-01   1.00800           0
     14367 MEMB     117      DOPE     C35      CTL2    -0.180000       12.0110           0
     14368 MEMB     117      DOPE     H5X      HAL2     0.900000E-01   1.00800           0
     14369 MEMB     117      DOPE     H5Y      HAL2     0.900000E-01   1.00800           0
     14370 MEMB     117      DOPE     C36      CTL2    -0.180000       12.0110           0
     14371 MEMB     117      DOPE     H6X      HAL2     0.900000E-01   1.00800           0
     14372 MEMB     117      DOPE     H6Y      HAL2     0.900000E-01   1.00800           0
     14373 MEMB     117      DOPE     C37      CTL2    -0.180000       12.0110           0
     14374 MEMB     117      DOPE     H7X      HAL2     0.900000E-01   1.00800           0
     14375 MEMB     117      DOPE     H7Y      HAL2     0.900000E-01   1.00800           0
     14376 MEMB     117      DOPE     C38      CTL2    -0.180000       12.0110           0
     14377 MEMB     117      DOPE     H8X      HAL2     0.900000E-01   1.00800           0
     14378 MEMB     117      DOPE     H8Y      HAL2     0.900000E-01   1.00800           0
     14379 MEMB     117      DOPE     C39      CEL1    -0.150000       12.0110           0
     14380 MEMB     117      DOPE     H9X      HEL1     0.150000       1.00800           0
     14381 MEMB     117      DOPE     C310     CEL1    -0.150000       12.0110           0
     14382 MEMB     117      DOPE     H10X     HEL1     0.150000       1.00800           0
     14383 MEMB     117      DOPE     C311     CTL2    -0.180000       12.0110           0
     14384 MEMB     117      DOPE     H11X     HAL2     0.900000E-01   1.00800           0
     14385 MEMB     117      DOPE     H11Y     HAL2     0.900000E-01   1.00800           0
     14386 MEMB     117      DOPE     C312     CTL2    -0.180000       12.0110           0
     14387 MEMB     117      DOPE     H12X     HAL2     0.900000E-01   1.00800           0
     14388 MEMB     117      DOPE     H12Y     HAL2     0.900000E-01   1.00800           0
     14389 MEMB     117      DOPE     C313     CTL2    -0.180000       12.0110           0
     14390 MEMB     117      DOPE     H13X     HAL2     0.900000E-01   1.00800           0
     14391 MEMB     117      DOPE     H13Y     HAL2     0.900000E-01   1.00800           0
     14392 MEMB     117      DOPE     C314     CTL2    -0.180000       12.0110           0
     14393 MEMB     117      DOPE     H14X     HAL2     0.900000E-01   1.00800           0
     14394 MEMB     117      DOPE     H14Y     HAL2     0.900000E-01   1.00800           0
     14395 MEMB     117      DOPE     C315     CTL2    -0.180000       12.0110           0
     14396 MEMB     117      DOPE     H15X     HAL2     0.900000E-01   1.00800           0
     14397 MEMB     117      DOPE     H15Y     HAL2     0.900000E-01   1.00800           0
     14398 MEMB     117      DOPE     C316     CTL2    -0.180000       12.0110           0
     14399 MEMB     117      DOPE     H16X     HAL2     0.900000E-01   1.00800           0
     14400 MEMB     117      DOPE     H16Y     HAL2     0.900000E-01   1.00800           0
     14401 MEMB     117      DOPE     C317     CTL2    -0.180000       12.0110           0
     14402 MEMB     117      DOPE     H17X     HAL2     0.900000E-01   1.00800           0
     14403 MEMB     117      DOPE     H17Y     HAL2     0.900000E-01   1.00800           0
     14404 MEMB     117      DOPE     C318     CTL3    -0.270000       12.0110           0
     14405 MEMB     117      DOPE     H18X     HAL3     0.900000E-01   1.00800           0
     14406 MEMB     117      DOPE     H18Y     HAL3     0.900000E-01   1.00800           0
     14407 MEMB     117      DOPE     H18Z     HAL3     0.900000E-01   1.00800           0
     14408 MEMB     118      DOPC     N        NTL     -0.600000       14.0070           0
     14409 MEMB     118      DOPC     C12      CTL2    -0.100000       12.0110           0
     14410 MEMB     118      DOPC     H12A     HL       0.250000       1.00800           0
     14411 MEMB     118      DOPC     H12B     HL       0.250000       1.00800           0
     14412 MEMB     118      DOPC     C13      CTL5    -0.350000       12.0110           0
     14413 MEMB     118      DOPC     H13A     HL       0.250000       1.00800           0
     14414 MEMB     118      DOPC     H13B     HL       0.250000       1.00800           0
     14415 MEMB     118      DOPC     H13C     HL       0.250000       1.00800           0
     14416 MEMB     118      DOPC     C14      CTL5    -0.350000       12.0110           0
     14417 MEMB     118      DOPC     H14A     HL       0.250000       1.00800           0
     14418 MEMB     118      DOPC     H14B     HL       0.250000       1.00800           0
     14419 MEMB     118      DOPC     H14C     HL       0.250000       1.00800           0
     14420 MEMB     118      DOPC     C15      CTL5    -0.350000       12.0110           0
     14421 MEMB     118      DOPC     H15A     HL       0.250000       1.00800           0
     14422 MEMB     118      DOPC     H15B     HL       0.250000       1.00800           0
     14423 MEMB     118      DOPC     H15C     HL       0.250000       1.00800           0
     14424 MEMB     118      DOPC     C11      CTL2    -0.800000E-01   12.0110           0
     14425 MEMB     118      DOPC     H11A     HAL2     0.900000E-01   1.00800           0
     14426 MEMB     118      DOPC     H11B     HAL2     0.900000E-01   1.00800           0
     14427 MEMB     118      DOPC     P        PL        1.50000       30.9740           0
     14428 MEMB     118      DOPC     O13      O2L     -0.780000       15.9994           0
     14429 MEMB     118      DOPC     O14      O2L     -0.780000       15.9994           0
     14430 MEMB     118      DOPC     O12      OSLP    -0.570000       15.9994           0
     14431 MEMB     118      DOPC     O11      OSLP    -0.570000       15.9994           0
     14432 MEMB     118      DOPC     C1       CTL2    -0.800000E-01   12.0110           0
     14433 MEMB     118      DOPC     HA       HAL2     0.900000E-01   1.00800           0
     14434 MEMB     118      DOPC     HB       HAL2     0.900000E-01   1.00800           0
     14435 MEMB     118      DOPC     C2       CTL1     0.170000       12.0110           0
     14436 MEMB     118      DOPC     HS       HAL1     0.900000E-01   1.00800           0
     14437 MEMB     118      DOPC     O21      OSL     -0.490000       15.9994           0
     14438 MEMB     118      DOPC     C21      CL       0.900000       12.0110           0
     14439 MEMB     118      DOPC     O22      OBL     -0.630000       15.9994           0
     14440 MEMB     118      DOPC     C22      CTL2    -0.220000       12.0110           0
     14441 MEMB     118      DOPC     H2R      HAL2     0.900000E-01   1.00800           0
     14442 MEMB     118      DOPC     H2S      HAL2     0.900000E-01   1.00800           0
     14443 MEMB     118      DOPC     C3       CTL2     0.800000E-01   12.0110           0
     14444 MEMB     118      DOPC     HX       HAL2     0.900000E-01   1.00800           0
     14445 MEMB     118      DOPC     HY       HAL2     0.900000E-01   1.00800           0
     14446 MEMB     118      DOPC     O31      OSL     -0.490000       15.9994           0
     14447 MEMB     118      DOPC     C31      CL       0.900000       12.0110           0
     14448 MEMB     118      DOPC     O32      OBL     -0.630000       15.9994           0
     14449 MEMB     118      DOPC     C32      CTL2    -0.220000       12.0110           0
     14450 MEMB     118      DOPC     H2X      HAL2     0.900000E-01   1.00800           0
     14451 MEMB     118      DOPC     H2Y      HAL2     0.900000E-01   1.00800           0
     14452 MEMB     118      DOPC     C23      CTL2    -0.180000       12.0110           0
     14453 MEMB     118      DOPC     H3R      HAL2     0.900000E-01   1.00800           0
     14454 MEMB     118      DOPC     H3S      HAL2     0.900000E-01   1.00800           0
     14455 MEMB     118      DOPC     C24      CTL2    -0.180000       12.0110           0
     14456 MEMB     118      DOPC     H4R      HAL2     0.900000E-01   1.00800           0
     14457 MEMB     118      DOPC     H4S      HAL2     0.900000E-01   1.00800           0
     14458 MEMB     118      DOPC     C25      CTL2    -0.180000       12.0110           0
     14459 MEMB     118      DOPC     H5R      HAL2     0.900000E-01   1.00800           0
     14460 MEMB     118      DOPC     H5S      HAL2     0.900000E-01   1.00800           0
     14461 MEMB     118      DOPC     C26      CTL2    -0.180000       12.0110           0
     14462 MEMB     118      DOPC     H6R      HAL2     0.900000E-01   1.00800           0
     14463 MEMB     118      DOPC     H6S      HAL2     0.900000E-01   1.00800           0
     14464 MEMB     118      DOPC     C27      CTL2    -0.180000       12.0110           0
     14465 MEMB     118      DOPC     H7R      HAL2     0.900000E-01   1.00800           0
     14466 MEMB     118      DOPC     H7S      HAL2     0.900000E-01   1.00800           0
     14467 MEMB     118      DOPC     C28      CTL2    -0.180000       12.0110           0
     14468 MEMB     118      DOPC     H8R      HAL2     0.900000E-01   1.00800           0
     14469 MEMB     118      DOPC     H8S      HAL2     0.900000E-01   1.00800           0
     14470 MEMB     118      DOPC     C29      CEL1    -0.150000       12.0110           0
     14471 MEMB     118      DOPC     H9R      HEL1     0.150000       1.00800           0
     14472 MEMB     118      DOPC     C210     CEL1    -0.150000       12.0110           0
     14473 MEMB     118      DOPC     H10R     HEL1     0.150000       1.00800           0
     14474 MEMB     118      DOPC     C211     CTL2    -0.180000       12.0110           0
     14475 MEMB     118      DOPC     H11R     HAL2     0.900000E-01   1.00800           0
     14476 MEMB     118      DOPC     H11S     HAL2     0.900000E-01   1.00800           0
     14477 MEMB     118      DOPC     C212     CTL2    -0.180000       12.0110           0
     14478 MEMB     118      DOPC     H12R     HAL2     0.900000E-01   1.00800           0
     14479 MEMB     118      DOPC     H12S     HAL2     0.900000E-01   1.00800           0
     14480 MEMB     118      DOPC     C213     CTL2    -0.180000       12.0110           0
     14481 MEMB     118      DOPC     H13R     HAL2     0.900000E-01   1.00800           0
     14482 MEMB     118      DOPC     H13S     HAL2     0.900000E-01   1.00800           0
     14483 MEMB     118      DOPC     C214     CTL2    -0.180000       12.0110           0
     14484 MEMB     118      DOPC     H14R     HAL2     0.900000E-01   1.00800           0
     14485 MEMB     118      DOPC     H14S     HAL2     0.900000E-01   1.00800           0
     14486 MEMB     118      DOPC     C215     CTL2    -0.180000       12.0110           0
     14487 MEMB     118      DOPC     H15R     HAL2     0.900000E-01   1.00800           0
     14488 MEMB     118      DOPC     H15S     HAL2     0.900000E-01   1.00800           0
     14489 MEMB     118      DOPC     C216     CTL2    -0.180000       12.0110           0
     14490 MEMB     118      DOPC     H16R     HAL2     0.900000E-01   1.00800           0
     14491 MEMB     118      DOPC     H16S     HAL2     0.900000E-01   1.00800           0
     14492 MEMB     118      DOPC     C217     CTL2    -0.180000       12.0110           0
     14493 MEMB     118      DOPC     H17R     HAL2     0.900000E-01   1.00800           0
     14494 MEMB     118      DOPC     H17S     HAL2     0.900000E-01   1.00800           0
     14495 MEMB     118      DOPC     C218     CTL3    -0.270000       12.0110           0
     14496 MEMB     118      DOPC     H18R     HAL3     0.900000E-01   1.00800           0
     14497 MEMB     118      DOPC     H18S     HAL3     0.900000E-01   1.00800           0
     14498 MEMB     118      DOPC     H18T     HAL3     0.900000E-01   1.00800           0
     14499 MEMB     118      DOPC     C33      CTL2    -0.180000       12.0110           0
     14500 MEMB     118      DOPC     H3X      HAL2     0.900000E-01   1.00800           0
     14501 MEMB     118      DOPC     H3Y      HAL2     0.900000E-01   1.00800           0
     14502 MEMB     118      DOPC     C34      CTL2    -0.180000       12.0110           0
     14503 MEMB     118      DOPC     H4X      HAL2     0.900000E-01   1.00800           0
     14504 MEMB     118      DOPC     H4Y      HAL2     0.900000E-01   1.00800           0
     14505 MEMB     118      DOPC     C35      CTL2    -0.180000       12.0110           0
     14506 MEMB     118      DOPC     H5X      HAL2     0.900000E-01   1.00800           0
     14507 MEMB     118      DOPC     H5Y      HAL2     0.900000E-01   1.00800           0
     14508 MEMB     118      DOPC     C36      CTL2    -0.180000       12.0110           0
     14509 MEMB     118      DOPC     H6X      HAL2     0.900000E-01   1.00800           0
     14510 MEMB     118      DOPC     H6Y      HAL2     0.900000E-01   1.00800           0
     14511 MEMB     118      DOPC     C37      CTL2    -0.180000       12.0110           0
     14512 MEMB     118      DOPC     H7X      HAL2     0.900000E-01   1.00800           0
     14513 MEMB     118      DOPC     H7Y      HAL2     0.900000E-01   1.00800           0
     14514 MEMB     118      DOPC     C38      CTL2    -0.180000       12.0110           0
     14515 MEMB     118      DOPC     H8X      HAL2     0.900000E-01   1.00800           0
     14516 MEMB     118      DOPC     H8Y      HAL2     0.900000E-01   1.00800           0
     14517 MEMB     118      DOPC     C39      CEL1    -0.150000       12.0110           0
     14518 MEMB     118      DOPC     H9X      HEL1     0.150000       1.00800           0
     14519 MEMB     118      DOPC     C310     CEL1    -0.150000       12.0110           0
     14520 MEMB     118      DOPC     H10X     HEL1     0.150000       1.00800           0
     14521 MEMB     118      DOPC     C311     CTL2    -0.180000       12.0110           0
     14522 MEMB     118      DOPC     H11X     HAL2     0.900000E-01   1.00800           0
     14523 MEMB     118      DOPC     H11Y     HAL2     0.900000E-01   1.00800           0
     14524 MEMB     118      DOPC     C312     CTL2    -0.180000       12.0110           0
     14525 MEMB     118      DOPC     H12X     HAL2     0.900000E-01   1.00800           0
     14526 MEMB     118      DOPC     H12Y     HAL2     0.900000E-01   1.00800           0
     14527 MEMB     118      DOPC     C313     CTL2    -0.180000       12.0110           0
     14528 MEMB     118      DOPC     H13X     HAL2     0.900000E-01   1.00800           0
     14529 MEMB     118      DOPC     H13Y     HAL2     0.900000E-01   1.00800           0
     14530 MEMB     118      DOPC     C314     CTL2    -0.180000       12.0110           0
     14531 MEMB     118      DOPC     H14X     HAL2     0.900000E-01   1.00800           0
     14532 MEMB     118      DOPC     H14Y     HAL2     0.900000E-01   1.00800           0
     14533 MEMB     118      DOPC     C315     CTL2    -0.180000       12.0110           0
     14534 MEMB     118      DOPC     H15X     HAL2     0.900000E-01   1.00800           0
     14535 MEMB     118      DOPC     H15Y     HAL2     0.900000E-01   1.00800           0
     14536 MEMB     118      DOPC     C316     CTL2    -0.180000       12.0110           0
     14537 MEMB     118      DOPC     H16X     HAL2     0.900000E-01   1.00800           0
     14538 MEMB     118      DOPC     H16Y     HAL2     0.900000E-01   1.00800           0
     14539 MEMB     118      DOPC     C317     CTL2    -0.180000       12.0110           0
     14540 MEMB     118      DOPC     H17X     HAL2     0.900000E-01   1.00800           0
     14541 MEMB     118      DOPC     H17Y     HAL2     0.900000E-01   1.00800           0
     14542 MEMB     118      DOPC     C318     CTL3    -0.270000       12.0110           0
     14543 MEMB     118      DOPC     H18X     HAL3     0.900000E-01   1.00800           0
     14544 MEMB     118      DOPC     H18Y     HAL3     0.900000E-01   1.00800           0
     14545 MEMB     118      DOPC     H18Z     HAL3     0.900000E-01   1.00800           0
     14546 MEMB     119      DOPE     N        NH3L    -0.300000       14.0070           0
     14547 MEMB     119      DOPE     HN1      HCL      0.330000       1.00800           0
     14548 MEMB     119      DOPE     HN2      HCL      0.330000       1.00800           0
     14549 MEMB     119      DOPE     HN3      HCL      0.330000       1.00800           0
     14550 MEMB     119      DOPE     C12      CTL2     0.130000       12.0110           0
     14551 MEMB     119      DOPE     H12A     HAL2     0.900000E-01   1.00800           0
     14552 MEMB     119      DOPE     H12B     HAL2     0.900000E-01   1.00800           0
     14553 MEMB     119      DOPE     C11      CTL2    -0.800000E-01   12.0110           0
     14554 MEMB     119      DOPE     H11A     HAL2     0.900000E-01   1.00800           0
     14555 MEMB     119      DOPE     H11B     HAL2     0.900000E-01   1.00800           0
     14556 MEMB     119      DOPE     P        PL        1.50000       30.9740           0
     14557 MEMB     119      DOPE     O13      O2L     -0.780000       15.9994           0
     14558 MEMB     119      DOPE     O14      O2L     -0.780000       15.9994           0
     14559 MEMB     119      DOPE     O11      OSLP    -0.570000       15.9994           0
     14560 MEMB     119      DOPE     O12      OSLP    -0.570000       15.9994           0
     14561 MEMB     119      DOPE     C1       CTL2    -0.800000E-01   12.0110           0
     14562 MEMB     119      DOPE     HA       HAL2     0.900000E-01   1.00800           0
     14563 MEMB     119      DOPE     HB       HAL2     0.900000E-01   1.00800           0
     14564 MEMB     119      DOPE     C2       CTL1     0.170000       12.0110           0
     14565 MEMB     119      DOPE     HS       HAL1     0.900000E-01   1.00800           0
     14566 MEMB     119      DOPE     O21      OSL     -0.490000       15.9994           0
     14567 MEMB     119      DOPE     C21      CL       0.900000       12.0110           0
     14568 MEMB     119      DOPE     O22      OBL     -0.630000       15.9994           0
     14569 MEMB     119      DOPE     C22      CTL2    -0.220000       12.0110           0
     14570 MEMB     119      DOPE     H2R      HAL2     0.900000E-01   1.00800           0
     14571 MEMB     119      DOPE     H2S      HAL2     0.900000E-01   1.00800           0
     14572 MEMB     119      DOPE     C3       CTL2     0.800000E-01   12.0110           0
     14573 MEMB     119      DOPE     HX       HAL2     0.900000E-01   1.00800           0
     14574 MEMB     119      DOPE     HY       HAL2     0.900000E-01   1.00800           0
     14575 MEMB     119      DOPE     O31      OSL     -0.490000       15.9994           0
     14576 MEMB     119      DOPE     C31      CL       0.900000       12.0110           0
     14577 MEMB     119      DOPE     O32      OBL     -0.630000       15.9994           0
     14578 MEMB     119      DOPE     C32      CTL2    -0.220000       12.0110           0
     14579 MEMB     119      DOPE     H2X      HAL2     0.900000E-01   1.00800           0
     14580 MEMB     119      DOPE     H2Y      HAL2     0.900000E-01   1.00800           0
     14581 MEMB     119      DOPE     C23      CTL2    -0.180000       12.0110           0
     14582 MEMB     119      DOPE     H3R      HAL2     0.900000E-01   1.00800           0
     14583 MEMB     119      DOPE     H3S      HAL2     0.900000E-01   1.00800           0
     14584 MEMB     119      DOPE     C24      CTL2    -0.180000       12.0110           0
     14585 MEMB     119      DOPE     H4R      HAL2     0.900000E-01   1.00800           0
     14586 MEMB     119      DOPE     H4S      HAL2     0.900000E-01   1.00800           0
     14587 MEMB     119      DOPE     C25      CTL2    -0.180000       12.0110           0
     14588 MEMB     119      DOPE     H5R      HAL2     0.900000E-01   1.00800           0
     14589 MEMB     119      DOPE     H5S      HAL2     0.900000E-01   1.00800           0
     14590 MEMB     119      DOPE     C26      CTL2    -0.180000       12.0110           0
     14591 MEMB     119      DOPE     H6R      HAL2     0.900000E-01   1.00800           0
     14592 MEMB     119      DOPE     H6S      HAL2     0.900000E-01   1.00800           0
     14593 MEMB     119      DOPE     C27      CTL2    -0.180000       12.0110           0
     14594 MEMB     119      DOPE     H7R      HAL2     0.900000E-01   1.00800           0
     14595 MEMB     119      DOPE     H7S      HAL2     0.900000E-01   1.00800           0
     14596 MEMB     119      DOPE     C28      CTL2    -0.180000       12.0110           0
     14597 MEMB     119      DOPE     H8R      HAL2     0.900000E-01   1.00800           0
     14598 MEMB     119      DOPE     H8S      HAL2     0.900000E-01   1.00800           0
     14599 MEMB     119      DOPE     C29      CEL1    -0.150000       12.0110           0
     14600 MEMB     119      DOPE     H9R      HEL1     0.150000       1.00800           0
     14601 MEMB     119      DOPE     C210     CEL1    -0.150000       12.0110           0
     14602 MEMB     119      DOPE     H10R     HEL1     0.150000       1.00800           0
     14603 MEMB     119      DOPE     C211     CTL2    -0.180000       12.0110           0
     14604 MEMB     119      DOPE     H11R     HAL2     0.900000E-01   1.00800           0
     14605 MEMB     119      DOPE     H11S     HAL2     0.900000E-01   1.00800           0
     14606 MEMB     119      DOPE     C212     CTL2    -0.180000       12.0110           0
     14607 MEMB     119      DOPE     H12R     HAL2     0.900000E-01   1.00800           0
     14608 MEMB     119      DOPE     H12S     HAL2     0.900000E-01   1.00800           0
     14609 MEMB     119      DOPE     C213     CTL2    -0.180000       12.0110           0
     14610 MEMB     119      DOPE     H13R     HAL2     0.900000E-01   1.00800           0
     14611 MEMB     119      DOPE     H13S     HAL2     0.900000E-01   1.00800           0
     14612 MEMB     119      DOPE     C214     CTL2    -0.180000       12.0110           0
     14613 MEMB     119      DOPE     H14R     HAL2     0.900000E-01   1.00800           0
     14614 MEMB     119      DOPE     H14S     HAL2     0.900000E-01   1.00800           0
     14615 MEMB     119      DOPE     C215     CTL2    -0.180000       12.0110           0
     14616 MEMB     119      DOPE     H15R     HAL2     0.900000E-01   1.00800           0
     14617 MEMB     119      DOPE     H15S     HAL2     0.900000E-01   1.00800           0
     14618 MEMB     119      DOPE     C216     CTL2    -0.180000       12.0110           0
     14619 MEMB     119      DOPE     H16R     HAL2     0.900000E-01   1.00800           0
     14620 MEMB     119      DOPE     H16S     HAL2     0.900000E-01   1.00800           0
     14621 MEMB     119      DOPE     C217     CTL2    -0.180000       12.0110           0
     14622 MEMB     119      DOPE     H17R     HAL2     0.900000E-01   1.00800           0
     14623 MEMB     119      DOPE     H17S     HAL2     0.900000E-01   1.00800           0
     14624 MEMB     119      DOPE     C218     CTL3    -0.270000       12.0110           0
     14625 MEMB     119      DOPE     H18R     HAL3     0.900000E-01   1.00800           0
     14626 MEMB     119      DOPE     H18S     HAL3     0.900000E-01   1.00800           0
     14627 MEMB     119      DOPE     H18T     HAL3     0.900000E-01   1.00800           0
     14628 MEMB     119      DOPE     C33      CTL2    -0.180000       12.0110           0
     14629 MEMB     119      DOPE     H3X      HAL2     0.900000E-01   1.00800           0
     14630 MEMB     119      DOPE     H3Y      HAL2     0.900000E-01   1.00800           0
     14631 MEMB     119      DOPE     C34      CTL2    -0.180000       12.0110           0
     14632 MEMB     119      DOPE     H4X      HAL2     0.900000E-01   1.00800           0
     14633 MEMB     119      DOPE     H4Y      HAL2     0.900000E-01   1.00800           0
     14634 MEMB     119      DOPE     C35      CTL2    -0.180000       12.0110           0
     14635 MEMB     119      DOPE     H5X      HAL2     0.900000E-01   1.00800           0
     14636 MEMB     119      DOPE     H5Y      HAL2     0.900000E-01   1.00800           0
     14637 MEMB     119      DOPE     C36      CTL2    -0.180000       12.0110           0
     14638 MEMB     119      DOPE     H6X      HAL2     0.900000E-01   1.00800           0
     14639 MEMB     119      DOPE     H6Y      HAL2     0.900000E-01   1.00800           0
     14640 MEMB     119      DOPE     C37      CTL2    -0.180000       12.0110           0
     14641 MEMB     119      DOPE     H7X      HAL2     0.900000E-01   1.00800           0
     14642 MEMB     119      DOPE     H7Y      HAL2     0.900000E-01   1.00800           0
     14643 MEMB     119      DOPE     C38      CTL2    -0.180000       12.0110           0
     14644 MEMB     119      DOPE     H8X      HAL2     0.900000E-01   1.00800           0
     14645 MEMB     119      DOPE     H8Y      HAL2     0.900000E-01   1.00800           0
     14646 MEMB     119      DOPE     C39      CEL1    -0.150000       12.0110           0
     14647 MEMB     119      DOPE     H9X      HEL1     0.150000       1.00800           0
     14648 MEMB     119      DOPE     C310     CEL1    -0.150000       12.0110           0
     14649 MEMB     119      DOPE     H10X     HEL1     0.150000       1.00800           0
     14650 MEMB     119      DOPE     C311     CTL2    -0.180000       12.0110           0
     14651 MEMB     119      DOPE     H11X     HAL2     0.900000E-01   1.00800           0
     14652 MEMB     119      DOPE     H11Y     HAL2     0.900000E-01   1.00800           0
     14653 MEMB     119      DOPE     C312     CTL2    -0.180000       12.0110           0
     14654 MEMB     119      DOPE     H12X     HAL2     0.900000E-01   1.00800           0
     14655 MEMB     119      DOPE     H12Y     HAL2     0.900000E-01   1.00800           0
     14656 MEMB     119      DOPE     C313     CTL2    -0.180000       12.0110           0
     14657 MEMB     119      DOPE     H13X     HAL2     0.900000E-01   1.00800           0
     14658 MEMB     119      DOPE     H13Y     HAL2     0.900000E-01   1.00800           0
     14659 MEMB     119      DOPE     C314     CTL2    -0.180000       12.0110           0
     14660 MEMB     119      DOPE     H14X     HAL2     0.900000E-01   1.00800           0
     14661 MEMB     119      DOPE     H14Y     HAL2     0.900000E-01   1.00800           0
     14662 MEMB     119      DOPE     C315     CTL2    -0.180000       12.0110           0
     14663 MEMB     119      DOPE     H15X     HAL2     0.900000E-01   1.00800           0
     14664 MEMB     119      DOPE     H15Y     HAL2     0.900000E-01   1.00800           0
     14665 MEMB     119      DOPE     C316     CTL2    -0.180000       12.0110           0
     14666 MEMB     119      DOPE     H16X     HAL2     0.900000E-01   1.00800           0
     14667 MEMB     119      DOPE     H16Y     HAL2     0.900000E-01   1.00800           0
     14668 MEMB     119      DOPE     C317     CTL2    -0.180000       12.0110           0
     14669 MEMB     119      DOPE     H17X     HAL2     0.900000E-01   1.00800           0
     14670 MEMB     119      DOPE     H17Y     HAL2     0.900000E-01   1.00800           0
     14671 MEMB     119      DOPE     C318     CTL3    -0.270000       12.0110           0
     14672 MEMB     119      DOPE     H18X     HAL3     0.900000E-01   1.00800           0
     14673 MEMB     119      DOPE     H18Y     HAL3     0.900000E-01   1.00800           0
     14674 MEMB     119      DOPE     H18Z     HAL3     0.900000E-01   1.00800           0
     14675 MEMB     120      DOPC     N        NTL     -0.600000       14.0070           0
     14676 MEMB     120      DOPC     C12      CTL2    -0.100000       12.0110           0
     14677 MEMB     120      DOPC     H12A     HL       0.250000       1.00800           0
     14678 MEMB     120      DOPC     H12B     HL       0.250000       1.00800           0
     14679 MEMB     120      DOPC     C13      CTL5    -0.350000       12.0110           0
     14680 MEMB     120      DOPC     H13A     HL       0.250000       1.00800           0
     14681 MEMB     120      DOPC     H13B     HL       0.250000       1.00800           0
     14682 MEMB     120      DOPC     H13C     HL       0.250000       1.00800           0
     14683 MEMB     120      DOPC     C14      CTL5    -0.350000       12.0110           0
     14684 MEMB     120      DOPC     H14A     HL       0.250000       1.00800           0
     14685 MEMB     120      DOPC     H14B     HL       0.250000       1.00800           0
     14686 MEMB     120      DOPC     H14C     HL       0.250000       1.00800           0
     14687 MEMB     120      DOPC     C15      CTL5    -0.350000       12.0110           0
     14688 MEMB     120      DOPC     H15A     HL       0.250000       1.00800           0
     14689 MEMB     120      DOPC     H15B     HL       0.250000       1.00800           0
     14690 MEMB     120      DOPC     H15C     HL       0.250000       1.00800           0
     14691 MEMB     120      DOPC     C11      CTL2    -0.800000E-01   12.0110           0
     14692 MEMB     120      DOPC     H11A     HAL2     0.900000E-01   1.00800           0
     14693 MEMB     120      DOPC     H11B     HAL2     0.900000E-01   1.00800           0
     14694 MEMB     120      DOPC     P        PL        1.50000       30.9740           0
     14695 MEMB     120      DOPC     O13      O2L     -0.780000       15.9994           0
     14696 MEMB     120      DOPC     O14      O2L     -0.780000       15.9994           0
     14697 MEMB     120      DOPC     O12      OSLP    -0.570000       15.9994           0
     14698 MEMB     120      DOPC     O11      OSLP    -0.570000       15.9994           0
     14699 MEMB     120      DOPC     C1       CTL2    -0.800000E-01   12.0110           0
     14700 MEMB     120      DOPC     HA       HAL2     0.900000E-01   1.00800           0
     14701 MEMB     120      DOPC     HB       HAL2     0.900000E-01   1.00800           0
     14702 MEMB     120      DOPC     C2       CTL1     0.170000       12.0110           0
     14703 MEMB     120      DOPC     HS       HAL1     0.900000E-01   1.00800           0
     14704 MEMB     120      DOPC     O21      OSL     -0.490000       15.9994           0
     14705 MEMB     120      DOPC     C21      CL       0.900000       12.0110           0
     14706 MEMB     120      DOPC     O22      OBL     -0.630000       15.9994           0
     14707 MEMB     120      DOPC     C22      CTL2    -0.220000       12.0110           0
     14708 MEMB     120      DOPC     H2R      HAL2     0.900000E-01   1.00800           0
     14709 MEMB     120      DOPC     H2S      HAL2     0.900000E-01   1.00800           0
     14710 MEMB     120      DOPC     C3       CTL2     0.800000E-01   12.0110           0
     14711 MEMB     120      DOPC     HX       HAL2     0.900000E-01   1.00800           0
     14712 MEMB     120      DOPC     HY       HAL2     0.900000E-01   1.00800           0
     14713 MEMB     120      DOPC     O31      OSL     -0.490000       15.9994           0
     14714 MEMB     120      DOPC     C31      CL       0.900000       12.0110           0
     14715 MEMB     120      DOPC     O32      OBL     -0.630000       15.9994           0
     14716 MEMB     120      DOPC     C32      CTL2    -0.220000       12.0110           0
     14717 MEMB     120      DOPC     H2X      HAL2     0.900000E-01   1.00800           0
     14718 MEMB     120      DOPC     H2Y      HAL2     0.900000E-01   1.00800           0
     14719 MEMB     120      DOPC     C23      CTL2    -0.180000       12.0110           0
     14720 MEMB     120      DOPC     H3R      HAL2     0.900000E-01   1.00800           0
     14721 MEMB     120      DOPC     H3S      HAL2     0.900000E-01   1.00800           0
     14722 MEMB     120      DOPC     C24      CTL2    -0.180000       12.0110           0
     14723 MEMB     120      DOPC     H4R      HAL2     0.900000E-01   1.00800           0
     14724 MEMB     120      DOPC     H4S      HAL2     0.900000E-01   1.00800           0
     14725 MEMB     120      DOPC     C25      CTL2    -0.180000       12.0110           0
     14726 MEMB     120      DOPC     H5R      HAL2     0.900000E-01   1.00800           0
     14727 MEMB     120      DOPC     H5S      HAL2     0.900000E-01   1.00800           0
     14728 MEMB     120      DOPC     C26      CTL2    -0.180000       12.0110           0
     14729 MEMB     120      DOPC     H6R      HAL2     0.900000E-01   1.00800           0
     14730 MEMB     120      DOPC     H6S      HAL2     0.900000E-01   1.00800           0
     14731 MEMB     120      DOPC     C27      CTL2    -0.180000       12.0110           0
     14732 MEMB     120      DOPC     H7R      HAL2     0.900000E-01   1.00800           0
     14733 MEMB     120      DOPC     H7S      HAL2     0.900000E-01   1.00800           0
     14734 MEMB     120      DOPC     C28      CTL2    -0.180000       12.0110           0
     14735 MEMB     120      DOPC     H8R      HAL2     0.900000E-01   1.00800           0
     14736 MEMB     120      DOPC     H8S      HAL2     0.900000E-01   1.00800           0
     14737 MEMB     120      DOPC     C29      CEL1    -0.150000       12.0110           0
     14738 MEMB     120      DOPC     H9R      HEL1     0.150000       1.00800           0
     14739 MEMB     120      DOPC     C210     CEL1    -0.150000       12.0110           0
     14740 MEMB     120      DOPC     H10R     HEL1     0.150000       1.00800           0
     14741 MEMB     120      DOPC     C211     CTL2    -0.180000       12.0110           0
     14742 MEMB     120      DOPC     H11R     HAL2     0.900000E-01   1.00800           0
     14743 MEMB     120      DOPC     H11S     HAL2     0.900000E-01   1.00800           0
     14744 MEMB     120      DOPC     C212     CTL2    -0.180000       12.0110           0
     14745 MEMB     120      DOPC     H12R     HAL2     0.900000E-01   1.00800           0
     14746 MEMB     120      DOPC     H12S     HAL2     0.900000E-01   1.00800           0
     14747 MEMB     120      DOPC     C213     CTL2    -0.180000       12.0110           0
     14748 MEMB     120      DOPC     H13R     HAL2     0.900000E-01   1.00800           0
     14749 MEMB     120      DOPC     H13S     HAL2     0.900000E-01   1.00800           0
     14750 MEMB     120      DOPC     C214     CTL2    -0.180000       12.0110           0
     14751 MEMB     120      DOPC     H14R     HAL2     0.900000E-01   1.00800           0
     14752 MEMB     120      DOPC     H14S     HAL2     0.900000E-01   1.00800           0
     14753 MEMB     120      DOPC     C215     CTL2    -0.180000       12.0110           0
     14754 MEMB     120      DOPC     H15R     HAL2     0.900000E-01   1.00800           0
     14755 MEMB     120      DOPC     H15S     HAL2     0.900000E-01   1.00800           0
     14756 MEMB     120      DOPC     C216     CTL2    -0.180000       12.0110           0
     14757 MEMB     120      DOPC     H16R     HAL2     0.900000E-01   1.00800           0
     14758 MEMB     120      DOPC     H16S     HAL2     0.900000E-01   1.00800           0
     14759 MEMB     120      DOPC     C217     CTL2    -0.180000       12.0110           0
     14760 MEMB     120      DOPC     H17R     HAL2     0.900000E-01   1.00800           0
     14761 MEMB     120      DOPC     H17S     HAL2     0.900000E-01   1.00800           0
     14762 MEMB     120      DOPC     C218     CTL3    -0.270000       12.0110           0
     14763 MEMB     120      DOPC     H18R     HAL3     0.900000E-01   1.00800           0
     14764 MEMB     120      DOPC     H18S     HAL3     0.900000E-01   1.00800           0
     14765 MEMB     120      DOPC     H18T     HAL3     0.900000E-01   1.00800           0
     14766 MEMB     120      DOPC     C33      CTL2    -0.180000       12.0110           0
     14767 MEMB     120      DOPC     H3X      HAL2     0.900000E-01   1.00800           0
     14768 MEMB     120      DOPC     H3Y      HAL2     0.900000E-01   1.00800           0
     14769 MEMB     120      DOPC     C34      CTL2    -0.180000       12.0110           0
     14770 MEMB     120      DOPC     H4X      HAL2     0.900000E-01   1.00800           0
     14771 MEMB     120      DOPC     H4Y      HAL2     0.900000E-01   1.00800           0
     14772 MEMB     120      DOPC     C35      CTL2    -0.180000       12.0110           0
     14773 MEMB     120      DOPC     H5X      HAL2     0.900000E-01   1.00800           0
     14774 MEMB     120      DOPC     H5Y      HAL2     0.900000E-01   1.00800           0
     14775 MEMB     120      DOPC     C36      CTL2    -0.180000       12.0110           0
     14776 MEMB     120      DOPC     H6X      HAL2     0.900000E-01   1.00800           0
     14777 MEMB     120      DOPC     H6Y      HAL2     0.900000E-01   1.00800           0
     14778 MEMB     120      DOPC     C37      CTL2    -0.180000       12.0110           0
     14779 MEMB     120      DOPC     H7X      HAL2     0.900000E-01   1.00800           0
     14780 MEMB     120      DOPC     H7Y      HAL2     0.900000E-01   1.00800           0
     14781 MEMB     120      DOPC     C38      CTL2    -0.180000       12.0110           0
     14782 MEMB     120      DOPC     H8X      HAL2     0.900000E-01   1.00800           0
     14783 MEMB     120      DOPC     H8Y      HAL2     0.900000E-01   1.00800           0
     14784 MEMB     120      DOPC     C39      CEL1    -0.150000       12.0110           0
     14785 MEMB     120      DOPC     H9X      HEL1     0.150000       1.00800           0
     14786 MEMB     120      DOPC     C310     CEL1    -0.150000       12.0110           0
     14787 MEMB     120      DOPC     H10X     HEL1     0.150000       1.00800           0
     14788 MEMB     120      DOPC     C311     CTL2    -0.180000       12.0110           0
     14789 MEMB     120      DOPC     H11X     HAL2     0.900000E-01   1.00800           0
     14790 MEMB     120      DOPC     H11Y     HAL2     0.900000E-01   1.00800           0
     14791 MEMB     120      DOPC     C312     CTL2    -0.180000       12.0110           0
     14792 MEMB     120      DOPC     H12X     HAL2     0.900000E-01   1.00800           0
     14793 MEMB     120      DOPC     H12Y     HAL2     0.900000E-01   1.00800           0
     14794 MEMB     120      DOPC     C313     CTL2    -0.180000       12.0110           0
     14795 MEMB     120      DOPC     H13X     HAL2     0.900000E-01   1.00800           0
     14796 MEMB     120      DOPC     H13Y     HAL2     0.900000E-01   1.00800           0
     14797 MEMB     120      DOPC     C314     CTL2    -0.180000       12.0110           0
     14798 MEMB     120      DOPC     H14X     HAL2     0.900000E-01   1.00800           0
     14799 MEMB     120      DOPC     H14Y     HAL2     0.900000E-01   1.00800           0
     14800 MEMB     120      DOPC     C315     CTL2    -0.180000       12.0110           0
     14801 MEMB     120      DOPC     H15X     HAL2     0.900000E-01   1.00800           0
     14802 MEMB     120      DOPC     H15Y     HAL2     0.900000E-01   1.00800           0
     14803 MEMB     120      DOPC     C316     CTL2    -0.180000       12.0110           0
     14804 MEMB     120      DOPC     H16X     HAL2     0.900000E-01   1.00800           0
     14805 MEMB     120      DOPC     H16Y     HAL2     0.900000E-01   1.00800           0
     14806 MEMB     120      DOPC     C317     CTL2    -0.180000       12.0110           0
     14807 MEMB     120      DOPC     H17X     HAL2     0.900000E-01   1.00800           0
     14808 MEMB     120      DOPC     H17Y     HAL2     0.900000E-01   1.00800           0
     14809 MEMB     120      DOPC     C318     CTL3    -0.270000       12.0110           0
     14810 MEMB     120      DOPC     H18X     HAL3     0.900000E-01   1.00800           0
     14811 MEMB     120      DOPC     H18Y     HAL3     0.900000E-01   1.00800           0
     14812 MEMB     120      DOPC     H18Z     HAL3     0.900000E-01   1.00800           0
     14813 MEMB     121      DOPE     N        NH3L    -0.300000       14.0070           0
     14814 MEMB     121      DOPE     HN1      HCL      0.330000       1.00800           0
     14815 MEMB     121      DOPE     HN2      HCL      0.330000       1.00800           0
     14816 MEMB     121      DOPE     HN3      HCL      0.330000       1.00800           0
     14817 MEMB     121      DOPE     C12      CTL2     0.130000       12.0110           0
     14818 MEMB     121      DOPE     H12A     HAL2     0.900000E-01   1.00800           0
     14819 MEMB     121      DOPE     H12B     HAL2     0.900000E-01   1.00800           0
     14820 MEMB     121      DOPE     C11      CTL2    -0.800000E-01   12.0110           0
     14821 MEMB     121      DOPE     H11A     HAL2     0.900000E-01   1.00800           0
     14822 MEMB     121      DOPE     H11B     HAL2     0.900000E-01   1.00800           0
     14823 MEMB     121      DOPE     P        PL        1.50000       30.9740           0
     14824 MEMB     121      DOPE     O13      O2L     -0.780000       15.9994           0
     14825 MEMB     121      DOPE     O14      O2L     -0.780000       15.9994           0
     14826 MEMB     121      DOPE     O11      OSLP    -0.570000       15.9994           0
     14827 MEMB     121      DOPE     O12      OSLP    -0.570000       15.9994           0
     14828 MEMB     121      DOPE     C1       CTL2    -0.800000E-01   12.0110           0
     14829 MEMB     121      DOPE     HA       HAL2     0.900000E-01   1.00800           0
     14830 MEMB     121      DOPE     HB       HAL2     0.900000E-01   1.00800           0
     14831 MEMB     121      DOPE     C2       CTL1     0.170000       12.0110           0
     14832 MEMB     121      DOPE     HS       HAL1     0.900000E-01   1.00800           0
     14833 MEMB     121      DOPE     O21      OSL     -0.490000       15.9994           0
     14834 MEMB     121      DOPE     C21      CL       0.900000       12.0110           0
     14835 MEMB     121      DOPE     O22      OBL     -0.630000       15.9994           0
     14836 MEMB     121      DOPE     C22      CTL2    -0.220000       12.0110           0
     14837 MEMB     121      DOPE     H2R      HAL2     0.900000E-01   1.00800           0
     14838 MEMB     121      DOPE     H2S      HAL2     0.900000E-01   1.00800           0
     14839 MEMB     121      DOPE     C3       CTL2     0.800000E-01   12.0110           0
     14840 MEMB     121      DOPE     HX       HAL2     0.900000E-01   1.00800           0
     14841 MEMB     121      DOPE     HY       HAL2     0.900000E-01   1.00800           0
     14842 MEMB     121      DOPE     O31      OSL     -0.490000       15.9994           0
     14843 MEMB     121      DOPE     C31      CL       0.900000       12.0110           0
     14844 MEMB     121      DOPE     O32      OBL     -0.630000       15.9994           0
     14845 MEMB     121      DOPE     C32      CTL2    -0.220000       12.0110           0
     14846 MEMB     121      DOPE     H2X      HAL2     0.900000E-01   1.00800           0
     14847 MEMB     121      DOPE     H2Y      HAL2     0.900000E-01   1.00800           0
     14848 MEMB     121      DOPE     C23      CTL2    -0.180000       12.0110           0
     14849 MEMB     121      DOPE     H3R      HAL2     0.900000E-01   1.00800           0
     14850 MEMB     121      DOPE     H3S      HAL2     0.900000E-01   1.00800           0
     14851 MEMB     121      DOPE     C24      CTL2    -0.180000       12.0110           0
     14852 MEMB     121      DOPE     H4R      HAL2     0.900000E-01   1.00800           0
     14853 MEMB     121      DOPE     H4S      HAL2     0.900000E-01   1.00800           0
     14854 MEMB     121      DOPE     C25      CTL2    -0.180000       12.0110           0
     14855 MEMB     121      DOPE     H5R      HAL2     0.900000E-01   1.00800           0
     14856 MEMB     121      DOPE     H5S      HAL2     0.900000E-01   1.00800           0
     14857 MEMB     121      DOPE     C26      CTL2    -0.180000       12.0110           0
     14858 MEMB     121      DOPE     H6R      HAL2     0.900000E-01   1.00800           0
     14859 MEMB     121      DOPE     H6S      HAL2     0.900000E-01   1.00800           0
     14860 MEMB     121      DOPE     C27      CTL2    -0.180000       12.0110           0
     14861 MEMB     121      DOPE     H7R      HAL2     0.900000E-01   1.00800           0
     14862 MEMB     121      DOPE     H7S      HAL2     0.900000E-01   1.00800           0
     14863 MEMB     121      DOPE     C28      CTL2    -0.180000       12.0110           0
     14864 MEMB     121      DOPE     H8R      HAL2     0.900000E-01   1.00800           0
     14865 MEMB     121      DOPE     H8S      HAL2     0.900000E-01   1.00800           0
     14866 MEMB     121      DOPE     C29      CEL1    -0.150000       12.0110           0
     14867 MEMB     121      DOPE     H9R      HEL1     0.150000       1.00800           0
     14868 MEMB     121      DOPE     C210     CEL1    -0.150000       12.0110           0
     14869 MEMB     121      DOPE     H10R     HEL1     0.150000       1.00800           0
     14870 MEMB     121      DOPE     C211     CTL2    -0.180000       12.0110           0
     14871 MEMB     121      DOPE     H11R     HAL2     0.900000E-01   1.00800           0
     14872 MEMB     121      DOPE     H11S     HAL2     0.900000E-01   1.00800           0
     14873 MEMB     121      DOPE     C212     CTL2    -0.180000       12.0110           0
     14874 MEMB     121      DOPE     H12R     HAL2     0.900000E-01   1.00800           0
     14875 MEMB     121      DOPE     H12S     HAL2     0.900000E-01   1.00800           0
     14876 MEMB     121      DOPE     C213     CTL2    -0.180000       12.0110           0
     14877 MEMB     121      DOPE     H13R     HAL2     0.900000E-01   1.00800           0
     14878 MEMB     121      DOPE     H13S     HAL2     0.900000E-01   1.00800           0
     14879 MEMB     121      DOPE     C214     CTL2    -0.180000       12.0110           0
     14880 MEMB     121      DOPE     H14R     HAL2     0.900000E-01   1.00800           0
     14881 MEMB     121      DOPE     H14S     HAL2     0.900000E-01   1.00800           0
     14882 MEMB     121      DOPE     C215     CTL2    -0.180000       12.0110           0
     14883 MEMB     121      DOPE     H15R     HAL2     0.900000E-01   1.00800           0
     14884 MEMB     121      DOPE     H15S     HAL2     0.900000E-01   1.00800           0
     14885 MEMB     121      DOPE     C216     CTL2    -0.180000       12.0110           0
     14886 MEMB     121      DOPE     H16R     HAL2     0.900000E-01   1.00800           0
     14887 MEMB     121      DOPE     H16S     HAL2     0.900000E-01   1.00800           0
     14888 MEMB     121      DOPE     C217     CTL2    -0.180000       12.0110           0
     14889 MEMB     121      DOPE     H17R     HAL2     0.900000E-01   1.00800           0
     14890 MEMB     121      DOPE     H17S     HAL2     0.900000E-01   1.00800           0
     14891 MEMB     121      DOPE     C218     CTL3    -0.270000       12.0110           0
     14892 MEMB     121      DOPE     H18R     HAL3     0.900000E-01   1.00800           0
     14893 MEMB     121      DOPE     H18S     HAL3     0.900000E-01   1.00800           0
     14894 MEMB     121      DOPE     H18T     HAL3     0.900000E-01   1.00800           0
     14895 MEMB     121      DOPE     C33      CTL2    -0.180000       12.0110           0
     14896 MEMB     121      DOPE     H3X      HAL2     0.900000E-01   1.00800           0
     14897 MEMB     121      DOPE     H3Y      HAL2     0.900000E-01   1.00800           0
     14898 MEMB     121      DOPE     C34      CTL2    -0.180000       12.0110           0
     14899 MEMB     121      DOPE     H4X      HAL2     0.900000E-01   1.00800           0
     14900 MEMB     121      DOPE     H4Y      HAL2     0.900000E-01   1.00800           0
     14901 MEMB     121      DOPE     C35      CTL2    -0.180000       12.0110           0
     14902 MEMB     121      DOPE     H5X      HAL2     0.900000E-01   1.00800           0
     14903 MEMB     121      DOPE     H5Y      HAL2     0.900000E-01   1.00800           0
     14904 MEMB     121      DOPE     C36      CTL2    -0.180000       12.0110           0
     14905 MEMB     121      DOPE     H6X      HAL2     0.900000E-01   1.00800           0
     14906 MEMB     121      DOPE     H6Y      HAL2     0.900000E-01   1.00800           0
     14907 MEMB     121      DOPE     C37      CTL2    -0.180000       12.0110           0
     14908 MEMB     121      DOPE     H7X      HAL2     0.900000E-01   1.00800           0
     14909 MEMB     121      DOPE     H7Y      HAL2     0.900000E-01   1.00800           0
     14910 MEMB     121      DOPE     C38      CTL2    -0.180000       12.0110           0
     14911 MEMB     121      DOPE     H8X      HAL2     0.900000E-01   1.00800           0
     14912 MEMB     121      DOPE     H8Y      HAL2     0.900000E-01   1.00800           0
     14913 MEMB     121      DOPE     C39      CEL1    -0.150000       12.0110           0
     14914 MEMB     121      DOPE     H9X      HEL1     0.150000       1.00800           0
     14915 MEMB     121      DOPE     C310     CEL1    -0.150000       12.0110           0
     14916 MEMB     121      DOPE     H10X     HEL1     0.150000       1.00800           0
     14917 MEMB     121      DOPE     C311     CTL2    -0.180000       12.0110           0
     14918 MEMB     121      DOPE     H11X     HAL2     0.900000E-01   1.00800           0
     14919 MEMB     121      DOPE     H11Y     HAL2     0.900000E-01   1.00800           0
     14920 MEMB     121      DOPE     C312     CTL2    -0.180000       12.0110           0
     14921 MEMB     121      DOPE     H12X     HAL2     0.900000E-01   1.00800           0
     14922 MEMB     121      DOPE     H12Y     HAL2     0.900000E-01   1.00800           0
     14923 MEMB     121      DOPE     C313     CTL2    -0.180000       12.0110           0
     14924 MEMB     121      DOPE     H13X     HAL2     0.900000E-01   1.00800           0
     14925 MEMB     121      DOPE     H13Y     HAL2     0.900000E-01   1.00800           0
     14926 MEMB     121      DOPE     C314     CTL2    -0.180000       12.0110           0
     14927 MEMB     121      DOPE     H14X     HAL2     0.900000E-01   1.00800           0
     14928 MEMB     121      DOPE     H14Y     HAL2     0.900000E-01   1.00800           0
     14929 MEMB     121      DOPE     C315     CTL2    -0.180000       12.0110           0
     14930 MEMB     121      DOPE     H15X     HAL2     0.900000E-01   1.00800           0
     14931 MEMB     121      DOPE     H15Y     HAL2     0.900000E-01   1.00800           0
     14932 MEMB     121      DOPE     C316     CTL2    -0.180000       12.0110           0
     14933 MEMB     121      DOPE     H16X     HAL2     0.900000E-01   1.00800           0
     14934 MEMB     121      DOPE     H16Y     HAL2     0.900000E-01   1.00800           0
     14935 MEMB     121      DOPE     C317     CTL2    -0.180000       12.0110           0
     14936 MEMB     121      DOPE     H17X     HAL2     0.900000E-01   1.00800           0
     14937 MEMB     121      DOPE     H17Y     HAL2     0.900000E-01   1.00800           0
     14938 MEMB     121      DOPE     C318     CTL3    -0.270000       12.0110           0
     14939 MEMB     121      DOPE     H18X     HAL3     0.900000E-01   1.00800           0
     14940 MEMB     121      DOPE     H18Y     HAL3     0.900000E-01   1.00800           0
     14941 MEMB     121      DOPE     H18Z     HAL3     0.900000E-01   1.00800           0
     14942 MEMB     122      DOPE     N        NH3L    -0.300000       14.0070           0
     14943 MEMB     122      DOPE     HN1      HCL      0.330000       1.00800           0
     14944 MEMB     122      DOPE     HN2      HCL      0.330000       1.00800           0
     14945 MEMB     122      DOPE     HN3      HCL      0.330000       1.00800           0
     14946 MEMB     122      DOPE     C12      CTL2     0.130000       12.0110           0
     14947 MEMB     122      DOPE     H12A     HAL2     0.900000E-01   1.00800           0
     14948 MEMB     122      DOPE     H12B     HAL2     0.900000E-01   1.00800           0
     14949 MEMB     122      DOPE     C11      CTL2    -0.800000E-01   12.0110           0
     14950 MEMB     122      DOPE     H11A     HAL2     0.900000E-01   1.00800           0
     14951 MEMB     122      DOPE     H11B     HAL2     0.900000E-01   1.00800           0
     14952 MEMB     122      DOPE     P        PL        1.50000       30.9740           0
     14953 MEMB     122      DOPE     O13      O2L     -0.780000       15.9994           0
     14954 MEMB     122      DOPE     O14      O2L     -0.780000       15.9994           0
     14955 MEMB     122      DOPE     O11      OSLP    -0.570000       15.9994           0
     14956 MEMB     122      DOPE     O12      OSLP    -0.570000       15.9994           0
     14957 MEMB     122      DOPE     C1       CTL2    -0.800000E-01   12.0110           0
     14958 MEMB     122      DOPE     HA       HAL2     0.900000E-01   1.00800           0
     14959 MEMB     122      DOPE     HB       HAL2     0.900000E-01   1.00800           0
     14960 MEMB     122      DOPE     C2       CTL1     0.170000       12.0110           0
     14961 MEMB     122      DOPE     HS       HAL1     0.900000E-01   1.00800           0
     14962 MEMB     122      DOPE     O21      OSL     -0.490000       15.9994           0
     14963 MEMB     122      DOPE     C21      CL       0.900000       12.0110           0
     14964 MEMB     122      DOPE     O22      OBL     -0.630000       15.9994           0
     14965 MEMB     122      DOPE     C22      CTL2    -0.220000       12.0110           0
     14966 MEMB     122      DOPE     H2R      HAL2     0.900000E-01   1.00800           0
     14967 MEMB     122      DOPE     H2S      HAL2     0.900000E-01   1.00800           0
     14968 MEMB     122      DOPE     C3       CTL2     0.800000E-01   12.0110           0
     14969 MEMB     122      DOPE     HX       HAL2     0.900000E-01   1.00800           0
     14970 MEMB     122      DOPE     HY       HAL2     0.900000E-01   1.00800           0
     14971 MEMB     122      DOPE     O31      OSL     -0.490000       15.9994           0
     14972 MEMB     122      DOPE     C31      CL       0.900000       12.0110           0
     14973 MEMB     122      DOPE     O32      OBL     -0.630000       15.9994           0
     14974 MEMB     122      DOPE     C32      CTL2    -0.220000       12.0110           0
     14975 MEMB     122      DOPE     H2X      HAL2     0.900000E-01   1.00800           0
     14976 MEMB     122      DOPE     H2Y      HAL2     0.900000E-01   1.00800           0
     14977 MEMB     122      DOPE     C23      CTL2    -0.180000       12.0110           0
     14978 MEMB     122      DOPE     H3R      HAL2     0.900000E-01   1.00800           0
     14979 MEMB     122      DOPE     H3S      HAL2     0.900000E-01   1.00800           0
     14980 MEMB     122      DOPE     C24      CTL2    -0.180000       12.0110           0
     14981 MEMB     122      DOPE     H4R      HAL2     0.900000E-01   1.00800           0
     14982 MEMB     122      DOPE     H4S      HAL2     0.900000E-01   1.00800           0
     14983 MEMB     122      DOPE     C25      CTL2    -0.180000       12.0110           0
     14984 MEMB     122      DOPE     H5R      HAL2     0.900000E-01   1.00800           0
     14985 MEMB     122      DOPE     H5S      HAL2     0.900000E-01   1.00800           0
     14986 MEMB     122      DOPE     C26      CTL2    -0.180000       12.0110           0
     14987 MEMB     122      DOPE     H6R      HAL2     0.900000E-01   1.00800           0
     14988 MEMB     122      DOPE     H6S      HAL2     0.900000E-01   1.00800           0
     14989 MEMB     122      DOPE     C27      CTL2    -0.180000       12.0110           0
     14990 MEMB     122      DOPE     H7R      HAL2     0.900000E-01   1.00800           0
     14991 MEMB     122      DOPE     H7S      HAL2     0.900000E-01   1.00800           0
     14992 MEMB     122      DOPE     C28      CTL2    -0.180000       12.0110           0
     14993 MEMB     122      DOPE     H8R      HAL2     0.900000E-01   1.00800           0
     14994 MEMB     122      DOPE     H8S      HAL2     0.900000E-01   1.00800           0
     14995 MEMB     122      DOPE     C29      CEL1    -0.150000       12.0110           0
     14996 MEMB     122      DOPE     H9R      HEL1     0.150000       1.00800           0
     14997 MEMB     122      DOPE     C210     CEL1    -0.150000       12.0110           0
     14998 MEMB     122      DOPE     H10R     HEL1     0.150000       1.00800           0
     14999 MEMB     122      DOPE     C211     CTL2    -0.180000       12.0110           0
     15000 MEMB     122      DOPE     H11R     HAL2     0.900000E-01   1.00800           0
     15001 MEMB     122      DOPE     H11S     HAL2     0.900000E-01   1.00800           0
     15002 MEMB     122      DOPE     C212     CTL2    -0.180000       12.0110           0
     15003 MEMB     122      DOPE     H12R     HAL2     0.900000E-01   1.00800           0
     15004 MEMB     122      DOPE     H12S     HAL2     0.900000E-01   1.00800           0
     15005 MEMB     122      DOPE     C213     CTL2    -0.180000       12.0110           0
     15006 MEMB     122      DOPE     H13R     HAL2     0.900000E-01   1.00800           0
     15007 MEMB     122      DOPE     H13S     HAL2     0.900000E-01   1.00800           0
     15008 MEMB     122      DOPE     C214     CTL2    -0.180000       12.0110           0
     15009 MEMB     122      DOPE     H14R     HAL2     0.900000E-01   1.00800           0
     15010 MEMB     122      DOPE     H14S     HAL2     0.900000E-01   1.00800           0
     15011 MEMB     122      DOPE     C215     CTL2    -0.180000       12.0110           0
     15012 MEMB     122      DOPE     H15R     HAL2     0.900000E-01   1.00800           0
     15013 MEMB     122      DOPE     H15S     HAL2     0.900000E-01   1.00800           0
     15014 MEMB     122      DOPE     C216     CTL2    -0.180000       12.0110           0
     15015 MEMB     122      DOPE     H16R     HAL2     0.900000E-01   1.00800           0
     15016 MEMB     122      DOPE     H16S     HAL2     0.900000E-01   1.00800           0
     15017 MEMB     122      DOPE     C217     CTL2    -0.180000       12.0110           0
     15018 MEMB     122      DOPE     H17R     HAL2     0.900000E-01   1.00800           0
     15019 MEMB     122      DOPE     H17S     HAL2     0.900000E-01   1.00800           0
     15020 MEMB     122      DOPE     C218     CTL3    -0.270000       12.0110           0
     15021 MEMB     122      DOPE     H18R     HAL3     0.900000E-01   1.00800           0
     15022 MEMB     122      DOPE     H18S     HAL3     0.900000E-01   1.00800           0
     15023 MEMB     122      DOPE     H18T     HAL3     0.900000E-01   1.00800           0
     15024 MEMB     122      DOPE     C33      CTL2    -0.180000       12.0110           0
     15025 MEMB     122      DOPE     H3X      HAL2     0.900000E-01   1.00800           0
     15026 MEMB     122      DOPE     H3Y      HAL2     0.900000E-01   1.00800           0
     15027 MEMB     122      DOPE     C34      CTL2    -0.180000       12.0110           0
     15028 MEMB     122      DOPE     H4X      HAL2     0.900000E-01   1.00800           0
     15029 MEMB     122      DOPE     H4Y      HAL2     0.900000E-01   1.00800           0
     15030 MEMB     122      DOPE     C35      CTL2    -0.180000       12.0110           0
     15031 MEMB     122      DOPE     H5X      HAL2     0.900000E-01   1.00800           0
     15032 MEMB     122      DOPE     H5Y      HAL2     0.900000E-01   1.00800           0
     15033 MEMB     122      DOPE     C36      CTL2    -0.180000       12.0110           0
     15034 MEMB     122      DOPE     H6X      HAL2     0.900000E-01   1.00800           0
     15035 MEMB     122      DOPE     H6Y      HAL2     0.900000E-01   1.00800           0
     15036 MEMB     122      DOPE     C37      CTL2    -0.180000       12.0110           0
     15037 MEMB     122      DOPE     H7X      HAL2     0.900000E-01   1.00800           0
     15038 MEMB     122      DOPE     H7Y      HAL2     0.900000E-01   1.00800           0
     15039 MEMB     122      DOPE     C38      CTL2    -0.180000       12.0110           0
     15040 MEMB     122      DOPE     H8X      HAL2     0.900000E-01   1.00800           0
     15041 MEMB     122      DOPE     H8Y      HAL2     0.900000E-01   1.00800           0
     15042 MEMB     122      DOPE     C39      CEL1    -0.150000       12.0110           0
     15043 MEMB     122      DOPE     H9X      HEL1     0.150000       1.00800           0
     15044 MEMB     122      DOPE     C310     CEL1    -0.150000       12.0110           0
     15045 MEMB     122      DOPE     H10X     HEL1     0.150000       1.00800           0
     15046 MEMB     122      DOPE     C311     CTL2    -0.180000       12.0110           0
     15047 MEMB     122      DOPE     H11X     HAL2     0.900000E-01   1.00800           0
     15048 MEMB     122      DOPE     H11Y     HAL2     0.900000E-01   1.00800           0
     15049 MEMB     122      DOPE     C312     CTL2    -0.180000       12.0110           0
     15050 MEMB     122      DOPE     H12X     HAL2     0.900000E-01   1.00800           0
     15051 MEMB     122      DOPE     H12Y     HAL2     0.900000E-01   1.00800           0
     15052 MEMB     122      DOPE     C313     CTL2    -0.180000       12.0110           0
     15053 MEMB     122      DOPE     H13X     HAL2     0.900000E-01   1.00800           0
     15054 MEMB     122      DOPE     H13Y     HAL2     0.900000E-01   1.00800           0
     15055 MEMB     122      DOPE     C314     CTL2    -0.180000       12.0110           0
     15056 MEMB     122      DOPE     H14X     HAL2     0.900000E-01   1.00800           0
     15057 MEMB     122      DOPE     H14Y     HAL2     0.900000E-01   1.00800           0
     15058 MEMB     122      DOPE     C315     CTL2    -0.180000       12.0110           0
     15059 MEMB     122      DOPE     H15X     HAL2     0.900000E-01   1.00800           0
     15060 MEMB     122      DOPE     H15Y     HAL2     0.900000E-01   1.00800           0
     15061 MEMB     122      DOPE     C316     CTL2    -0.180000       12.0110           0
     15062 MEMB     122      DOPE     H16X     HAL2     0.900000E-01   1.00800           0
     15063 MEMB     122      DOPE     H16Y     HAL2     0.900000E-01   1.00800           0
     15064 MEMB     122      DOPE     C317     CTL2    -0.180000       12.0110           0
     15065 MEMB     122      DOPE     H17X     HAL2     0.900000E-01   1.00800           0
     15066 MEMB     122      DOPE     H17Y     HAL2     0.900000E-01   1.00800           0
     15067 MEMB     122      DOPE     C318     CTL3    -0.270000       12.0110           0
     15068 MEMB     122      DOPE     H18X     HAL3     0.900000E-01   1.00800           0
     15069 MEMB     122      DOPE     H18Y     HAL3     0.900000E-01   1.00800           0
     15070 MEMB     122      DOPE     H18Z     HAL3     0.900000E-01   1.00800           0
     15071 MEMB     123      DOPE     N        NH3L    -0.300000       14.0070           0
     15072 MEMB     123      DOPE     HN1      HCL      0.330000       1.00800           0
     15073 MEMB     123      DOPE     HN2      HCL      0.330000       1.00800           0
     15074 MEMB     123      DOPE     HN3      HCL      0.330000       1.00800           0
     15075 MEMB     123      DOPE     C12      CTL2     0.130000       12.0110           0
     15076 MEMB     123      DOPE     H12A     HAL2     0.900000E-01   1.00800           0
     15077 MEMB     123      DOPE     H12B     HAL2     0.900000E-01   1.00800           0
     15078 MEMB     123      DOPE     C11      CTL2    -0.800000E-01   12.0110           0
     15079 MEMB     123      DOPE     H11A     HAL2     0.900000E-01   1.00800           0
     15080 MEMB     123      DOPE     H11B     HAL2     0.900000E-01   1.00800           0
     15081 MEMB     123      DOPE     P        PL        1.50000       30.9740           0
     15082 MEMB     123      DOPE     O13      O2L     -0.780000       15.9994           0
     15083 MEMB     123      DOPE     O14      O2L     -0.780000       15.9994           0
     15084 MEMB     123      DOPE     O11      OSLP    -0.570000       15.9994           0
     15085 MEMB     123      DOPE     O12      OSLP    -0.570000       15.9994           0
     15086 MEMB     123      DOPE     C1       CTL2    -0.800000E-01   12.0110           0
     15087 MEMB     123      DOPE     HA       HAL2     0.900000E-01   1.00800           0
     15088 MEMB     123      DOPE     HB       HAL2     0.900000E-01   1.00800           0
     15089 MEMB     123      DOPE     C2       CTL1     0.170000       12.0110           0
     15090 MEMB     123      DOPE     HS       HAL1     0.900000E-01   1.00800           0
     15091 MEMB     123      DOPE     O21      OSL     -0.490000       15.9994           0
     15092 MEMB     123      DOPE     C21      CL       0.900000       12.0110           0
     15093 MEMB     123      DOPE     O22      OBL     -0.630000       15.9994           0
     15094 MEMB     123      DOPE     C22      CTL2    -0.220000       12.0110           0
     15095 MEMB     123      DOPE     H2R      HAL2     0.900000E-01   1.00800           0
     15096 MEMB     123      DOPE     H2S      HAL2     0.900000E-01   1.00800           0
     15097 MEMB     123      DOPE     C3       CTL2     0.800000E-01   12.0110           0
     15098 MEMB     123      DOPE     HX       HAL2     0.900000E-01   1.00800           0
     15099 MEMB     123      DOPE     HY       HAL2     0.900000E-01   1.00800           0
     15100 MEMB     123      DOPE     O31      OSL     -0.490000       15.9994           0
     15101 MEMB     123      DOPE     C31      CL       0.900000       12.0110           0
     15102 MEMB     123      DOPE     O32      OBL     -0.630000       15.9994           0
     15103 MEMB     123      DOPE     C32      CTL2    -0.220000       12.0110           0
     15104 MEMB     123      DOPE     H2X      HAL2     0.900000E-01   1.00800           0
     15105 MEMB     123      DOPE     H2Y      HAL2     0.900000E-01   1.00800           0
     15106 MEMB     123      DOPE     C23      CTL2    -0.180000       12.0110           0
     15107 MEMB     123      DOPE     H3R      HAL2     0.900000E-01   1.00800           0
     15108 MEMB     123      DOPE     H3S      HAL2     0.900000E-01   1.00800           0
     15109 MEMB     123      DOPE     C24      CTL2    -0.180000       12.0110           0
     15110 MEMB     123      DOPE     H4R      HAL2     0.900000E-01   1.00800           0
     15111 MEMB     123      DOPE     H4S      HAL2     0.900000E-01   1.00800           0
     15112 MEMB     123      DOPE     C25      CTL2    -0.180000       12.0110           0
     15113 MEMB     123      DOPE     H5R      HAL2     0.900000E-01   1.00800           0
     15114 MEMB     123      DOPE     H5S      HAL2     0.900000E-01   1.00800           0
     15115 MEMB     123      DOPE     C26      CTL2    -0.180000       12.0110           0
     15116 MEMB     123      DOPE     H6R      HAL2     0.900000E-01   1.00800           0
     15117 MEMB     123      DOPE     H6S      HAL2     0.900000E-01   1.00800           0
     15118 MEMB     123      DOPE     C27      CTL2    -0.180000       12.0110           0
     15119 MEMB     123      DOPE     H7R      HAL2     0.900000E-01   1.00800           0
     15120 MEMB     123      DOPE     H7S      HAL2     0.900000E-01   1.00800           0
     15121 MEMB     123      DOPE     C28      CTL2    -0.180000       12.0110           0
     15122 MEMB     123      DOPE     H8R      HAL2     0.900000E-01   1.00800           0
     15123 MEMB     123      DOPE     H8S      HAL2     0.900000E-01   1.00800           0
     15124 MEMB     123      DOPE     C29      CEL1    -0.150000       12.0110           0
     15125 MEMB     123      DOPE     H9R      HEL1     0.150000       1.00800           0
     15126 MEMB     123      DOPE     C210     CEL1    -0.150000       12.0110           0
     15127 MEMB     123      DOPE     H10R     HEL1     0.150000       1.00800           0
     15128 MEMB     123      DOPE     C211     CTL2    -0.180000       12.0110           0
     15129 MEMB     123      DOPE     H11R     HAL2     0.900000E-01   1.00800           0
     15130 MEMB     123      DOPE     H11S     HAL2     0.900000E-01   1.00800           0
     15131 MEMB     123      DOPE     C212     CTL2    -0.180000       12.0110           0
     15132 MEMB     123      DOPE     H12R     HAL2     0.900000E-01   1.00800           0
     15133 MEMB     123      DOPE     H12S     HAL2     0.900000E-01   1.00800           0
     15134 MEMB     123      DOPE     C213     CTL2    -0.180000       12.0110           0
     15135 MEMB     123      DOPE     H13R     HAL2     0.900000E-01   1.00800           0
     15136 MEMB     123      DOPE     H13S     HAL2     0.900000E-01   1.00800           0
     15137 MEMB     123      DOPE     C214     CTL2    -0.180000       12.0110           0
     15138 MEMB     123      DOPE     H14R     HAL2     0.900000E-01   1.00800           0
     15139 MEMB     123      DOPE     H14S     HAL2     0.900000E-01   1.00800           0
     15140 MEMB     123      DOPE     C215     CTL2    -0.180000       12.0110           0
     15141 MEMB     123      DOPE     H15R     HAL2     0.900000E-01   1.00800           0
     15142 MEMB     123      DOPE     H15S     HAL2     0.900000E-01   1.00800           0
     15143 MEMB     123      DOPE     C216     CTL2    -0.180000       12.0110           0
     15144 MEMB     123      DOPE     H16R     HAL2     0.900000E-01   1.00800           0
     15145 MEMB     123      DOPE     H16S     HAL2     0.900000E-01   1.00800           0
     15146 MEMB     123      DOPE     C217     CTL2    -0.180000       12.0110           0
     15147 MEMB     123      DOPE     H17R     HAL2     0.900000E-01   1.00800           0
     15148 MEMB     123      DOPE     H17S     HAL2     0.900000E-01   1.00800           0
     15149 MEMB     123      DOPE     C218     CTL3    -0.270000       12.0110           0
     15150 MEMB     123      DOPE     H18R     HAL3     0.900000E-01   1.00800           0
     15151 MEMB     123      DOPE     H18S     HAL3     0.900000E-01   1.00800           0
     15152 MEMB     123      DOPE     H18T     HAL3     0.900000E-01   1.00800           0
     15153 MEMB     123      DOPE     C33      CTL2    -0.180000       12.0110           0
     15154 MEMB     123      DOPE     H3X      HAL2     0.900000E-01   1.00800           0
     15155 MEMB     123      DOPE     H3Y      HAL2     0.900000E-01   1.00800           0
     15156 MEMB     123      DOPE     C34      CTL2    -0.180000       12.0110           0
     15157 MEMB     123      DOPE     H4X      HAL2     0.900000E-01   1.00800           0
     15158 MEMB     123      DOPE     H4Y      HAL2     0.900000E-01   1.00800           0
     15159 MEMB     123      DOPE     C35      CTL2    -0.180000       12.0110           0
     15160 MEMB     123      DOPE     H5X      HAL2     0.900000E-01   1.00800           0
     15161 MEMB     123      DOPE     H5Y      HAL2     0.900000E-01   1.00800           0
     15162 MEMB     123      DOPE     C36      CTL2    -0.180000       12.0110           0
     15163 MEMB     123      DOPE     H6X      HAL2     0.900000E-01   1.00800           0
     15164 MEMB     123      DOPE     H6Y      HAL2     0.900000E-01   1.00800           0
     15165 MEMB     123      DOPE     C37      CTL2    -0.180000       12.0110           0
     15166 MEMB     123      DOPE     H7X      HAL2     0.900000E-01   1.00800           0
     15167 MEMB     123      DOPE     H7Y      HAL2     0.900000E-01   1.00800           0
     15168 MEMB     123      DOPE     C38      CTL2    -0.180000       12.0110           0
     15169 MEMB     123      DOPE     H8X      HAL2     0.900000E-01   1.00800           0
     15170 MEMB     123      DOPE     H8Y      HAL2     0.900000E-01   1.00800           0
     15171 MEMB     123      DOPE     C39      CEL1    -0.150000       12.0110           0
     15172 MEMB     123      DOPE     H9X      HEL1     0.150000       1.00800           0
     15173 MEMB     123      DOPE     C310     CEL1    -0.150000       12.0110           0
     15174 MEMB     123      DOPE     H10X     HEL1     0.150000       1.00800           0
     15175 MEMB     123      DOPE     C311     CTL2    -0.180000       12.0110           0
     15176 MEMB     123      DOPE     H11X     HAL2     0.900000E-01   1.00800           0
     15177 MEMB     123      DOPE     H11Y     HAL2     0.900000E-01   1.00800           0
     15178 MEMB     123      DOPE     C312     CTL2    -0.180000       12.0110           0
     15179 MEMB     123      DOPE     H12X     HAL2     0.900000E-01   1.00800           0
     15180 MEMB     123      DOPE     H12Y     HAL2     0.900000E-01   1.00800           0
     15181 MEMB     123      DOPE     C313     CTL2    -0.180000       12.0110           0
     15182 MEMB     123      DOPE     H13X     HAL2     0.900000E-01   1.00800           0
     15183 MEMB     123      DOPE     H13Y     HAL2     0.900000E-01   1.00800           0
     15184 MEMB     123      DOPE     C314     CTL2    -0.180000       12.0110           0
     15185 MEMB     123      DOPE     H14X     HAL2     0.900000E-01   1.00800           0
     15186 MEMB     123      DOPE     H14Y     HAL2     0.900000E-01   1.00800           0
     15187 MEMB     123      DOPE     C315     CTL2    -0.180000       12.0110           0
     15188 MEMB     123      DOPE     H15X     HAL2     0.900000E-01   1.00800           0
     15189 MEMB     123      DOPE     H15Y     HAL2     0.900000E-01   1.00800           0
     15190 MEMB     123      DOPE     C316     CTL2    -0.180000       12.0110           0
     15191 MEMB     123      DOPE     H16X     HAL2     0.900000E-01   1.00800           0
     15192 MEMB     123      DOPE     H16Y     HAL2     0.900000E-01   1.00800           0
     15193 MEMB     123      DOPE     C317     CTL2    -0.180000       12.0110           0
     15194 MEMB     123      DOPE     H17X     HAL2     0.900000E-01   1.00800           0
     15195 MEMB     123      DOPE     H17Y     HAL2     0.900000E-01   1.00800           0
     15196 MEMB     123      DOPE     C318     CTL3    -0.270000       12.0110           0
     15197 MEMB     123      DOPE     H18X     HAL3     0.900000E-01   1.00800           0
     15198 MEMB     123      DOPE     H18Y     HAL3     0.900000E-01   1.00800           0
     15199 MEMB     123      DOPE     H18Z     HAL3     0.900000E-01   1.00800           0
     15200 MEMB     124      23SM     N        NTL     -0.600000       14.0070           0
     15201 MEMB     124      23SM     C15      CTL5    -0.350000       12.0110           0
     15202 MEMB     124      23SM     H15A     HL       0.250000       1.00800           0
     15203 MEMB     124      23SM     H15B     HL       0.250000       1.00800           0
     15204 MEMB     124      23SM     H15C     HL       0.250000       1.00800           0
     15205 MEMB     124      23SM     C14      CTL5    -0.350000       12.0110           0
     15206 MEMB     124      23SM     H14A     HL       0.250000       1.00800           0
     15207 MEMB     124      23SM     H14B     HL       0.250000       1.00800           0
     15208 MEMB     124      23SM     H14C     HL       0.250000       1.00800           0
     15209 MEMB     124      23SM     C13      CTL5    -0.350000       12.0110           0
     15210 MEMB     124      23SM     H13A     HL       0.250000       1.00800           0
     15211 MEMB     124      23SM     H13B     HL       0.250000       1.00800           0
     15212 MEMB     124      23SM     H13C     HL       0.250000       1.00800           0
     15213 MEMB     124      23SM     C12      CTL2    -0.100000       12.0110           0
     15214 MEMB     124      23SM     H12A     HL       0.250000       1.00800           0
     15215 MEMB     124      23SM     H12B     HL       0.250000       1.00800           0
     15216 MEMB     124      23SM     C11      CTL2    -0.800000E-01   12.0110           0
     15217 MEMB     124      23SM     H11A     HAL2     0.900000E-01   1.00800           0
     15218 MEMB     124      23SM     H11B     HAL2     0.900000E-01   1.00800           0
     15219 MEMB     124      23SM     P        PL        1.50000       30.9740           0
     15220 MEMB     124      23SM     O13      O2L     -0.780000       15.9994           0
     15221 MEMB     124      23SM     O14      O2L     -0.780000       15.9994           0
     15222 MEMB     124      23SM     O11      OSLP    -0.570000       15.9994           0
     15223 MEMB     124      23SM     O12      OSLP    -0.570000       15.9994           0
     15224 MEMB     124      23SM     C1S      CTL2    -0.800000E-01   12.0110           0
     15225 MEMB     124      23SM     H1S      HAL2     0.900000E-01   1.00800           0
     15226 MEMB     124      23SM     H1T      HAL2     0.900000E-01   1.00800           0
     15227 MEMB     124      23SM     NF       NHL     -0.700000       14.0070           0
     15228 MEMB     124      23SM     HNF      H        0.350000       1.00800           0
     15229 MEMB     124      23SM     C2S      CTL1     0.300000       12.0110           0
     15230 MEMB     124      23SM     H2S      HAL1     0.500000E-01   1.00800           0
     15231 MEMB     124      23SM     C3S      CTO1     0.500000       12.0110           0
     15232 MEMB     124      23SM     H3S      HAL1    -0.110000       1.00800           0
     15233 MEMB     124      23SM     O3       OHL     -0.690000       15.9994           0
     15234 MEMB     124      23SM     HO3      HOL      0.300000       1.00800           0
     15235 MEMB     124      23SM     C4S      CEL3    -0.150000       12.0110           0
     15236 MEMB     124      23SM     H4S      HEL1     0.150000       1.00800           0
     15237 MEMB     124      23SM     C5S      CEL3    -0.150000       12.0110           0
     15238 MEMB     124      23SM     H5S      HEL1     0.150000       1.00800           0
     15239 MEMB     124      23SM     C6S      CTL2    -0.180000       12.0110           0
     15240 MEMB     124      23SM     H6S      HAL2     0.900000E-01   1.00800           0
     15241 MEMB     124      23SM     H6T      HAL2     0.900000E-01   1.00800           0
     15242 MEMB     124      23SM     C7S      CTL2    -0.180000       12.0110           0
     15243 MEMB     124      23SM     H7S      HAL2     0.900000E-01   1.00800           0
     15244 MEMB     124      23SM     H7T      HAL2     0.900000E-01   1.00800           0
     15245 MEMB     124      23SM     C8S      CTL2    -0.180000       12.0110           0
     15246 MEMB     124      23SM     H8S      HAL2     0.900000E-01   1.00800           0
     15247 MEMB     124      23SM     H8T      HAL2     0.900000E-01   1.00800           0
     15248 MEMB     124      23SM     C9S      CTL2    -0.180000       12.0110           0
     15249 MEMB     124      23SM     H9S      HAL2     0.900000E-01   1.00800           0
     15250 MEMB     124      23SM     H9T      HAL2     0.900000E-01   1.00800           0
     15251 MEMB     124      23SM     C10S     CTL2    -0.180000       12.0110           0
     15252 MEMB     124      23SM     H10S     HAL2     0.900000E-01   1.00800           0
     15253 MEMB     124      23SM     H10T     HAL2     0.900000E-01   1.00800           0
     15254 MEMB     124      23SM     C11S     CTL2    -0.180000       12.0110           0
     15255 MEMB     124      23SM     H11S     HAL2     0.900000E-01   1.00800           0
     15256 MEMB     124      23SM     H11T     HAL2     0.900000E-01   1.00800           0
     15257 MEMB     124      23SM     C12S     CTL2    -0.180000       12.0110           0
     15258 MEMB     124      23SM     H12S     HAL2     0.900000E-01   1.00800           0
     15259 MEMB     124      23SM     H12T     HAL2     0.900000E-01   1.00800           0
     15260 MEMB     124      23SM     C13S     CTL2    -0.180000       12.0110           0
     15261 MEMB     124      23SM     H13S     HAL2     0.900000E-01   1.00800           0
     15262 MEMB     124      23SM     H13T     HAL2     0.900000E-01   1.00800           0
     15263 MEMB     124      23SM     C14S     CTL2    -0.180000       12.0110           0
     15264 MEMB     124      23SM     H14S     HAL2     0.900000E-01   1.00800           0
     15265 MEMB     124      23SM     H14T     HAL2     0.900000E-01   1.00800           0
     15266 MEMB     124      23SM     C15S     CTL2    -0.180000       12.0110           0
     15267 MEMB     124      23SM     H15S     HAL2     0.900000E-01   1.00800           0
     15268 MEMB     124      23SM     H15T     HAL2     0.900000E-01   1.00800           0
     15269 MEMB     124      23SM     C16S     CTL2    -0.180000       12.0110           0
     15270 MEMB     124      23SM     H16S     HAL2     0.900000E-01   1.00800           0
     15271 MEMB     124      23SM     H16T     HAL2     0.900000E-01   1.00800           0
     15272 MEMB     124      23SM     C17S     CTL2    -0.180000       12.0110           0
     15273 MEMB     124      23SM     H17S     HAL2     0.900000E-01   1.00800           0
     15274 MEMB     124      23SM     H17T     HAL2     0.900000E-01   1.00800           0
     15275 MEMB     124      23SM     C18S     CTL3    -0.270000       12.0110           0
     15276 MEMB     124      23SM     H18S     HAL3     0.900000E-01   1.00800           0
     15277 MEMB     124      23SM     H18T     HAL3     0.900000E-01   1.00800           0
     15278 MEMB     124      23SM     H18U     HAL3     0.900000E-01   1.00800           0
     15279 MEMB     124      23SM     C1F      C        0.550000       12.0110           0
     15280 MEMB     124      23SM     OF       O       -0.600000       15.9994           0
     15281 MEMB     124      23SM     C2F      CTL2    -0.700000E-01   12.0110           0
     15282 MEMB     124      23SM     H2F      HAL2     0.600000E-01   1.00800           0
     15283 MEMB     124      23SM     H2G      HAL2     0.600000E-01   1.00800           0
     15284 MEMB     124      23SM     C3F      CTL2    -0.180000       12.0110           0
     15285 MEMB     124      23SM     H3F      HAL2     0.900000E-01   1.00800           0
     15286 MEMB     124      23SM     H3G      HAL2     0.900000E-01   1.00800           0
     15287 MEMB     124      23SM     C4F      CTL2    -0.180000       12.0110           0
     15288 MEMB     124      23SM     H4F      HAL2     0.900000E-01   1.00800           0
     15289 MEMB     124      23SM     H4G      HAL2     0.900000E-01   1.00800           0
     15290 MEMB     124      23SM     C5F      CTL2    -0.180000       12.0110           0
     15291 MEMB     124      23SM     H5F      HAL2     0.900000E-01   1.00800           0
     15292 MEMB     124      23SM     H5G      HAL2     0.900000E-01   1.00800           0
     15293 MEMB     124      23SM     C6F      CTL2    -0.180000       12.0110           0
     15294 MEMB     124      23SM     H6F      HAL2     0.900000E-01   1.00800           0
     15295 MEMB     124      23SM     H6G      HAL2     0.900000E-01   1.00800           0
     15296 MEMB     124      23SM     C7F      CTL2    -0.180000       12.0110           0
     15297 MEMB     124      23SM     H7F      HAL2     0.900000E-01   1.00800           0
     15298 MEMB     124      23SM     H7G      HAL2     0.900000E-01   1.00800           0
     15299 MEMB     124      23SM     C8F      CTL2    -0.180000       12.0110           0
     15300 MEMB     124      23SM     H8F      HAL2     0.900000E-01   1.00800           0
     15301 MEMB     124      23SM     H8G      HAL2     0.900000E-01   1.00800           0
     15302 MEMB     124      23SM     C9F      CTL2    -0.180000       12.0110           0
     15303 MEMB     124      23SM     H9F      HAL2     0.900000E-01   1.00800           0
     15304 MEMB     124      23SM     H9G      HAL2     0.900000E-01   1.00800           0
     15305 MEMB     124      23SM     C10F     CTL2    -0.180000       12.0110           0
     15306 MEMB     124      23SM     H10F     HAL2     0.900000E-01   1.00800           0
     15307 MEMB     124      23SM     H10G     HAL2     0.900000E-01   1.00800           0
     15308 MEMB     124      23SM     C11F     CTL2    -0.180000       12.0110           0
     15309 MEMB     124      23SM     H11F     HAL2     0.900000E-01   1.00800           0
     15310 MEMB     124      23SM     H11G     HAL2     0.900000E-01   1.00800           0
     15311 MEMB     124      23SM     C12F     CTL2    -0.180000       12.0110           0
     15312 MEMB     124      23SM     H12F     HAL2     0.900000E-01   1.00800           0
     15313 MEMB     124      23SM     H12G     HAL2     0.900000E-01   1.00800           0
     15314 MEMB     124      23SM     C13F     CTL2    -0.180000       12.0110           0
     15315 MEMB     124      23SM     H13F     HAL2     0.900000E-01   1.00800           0
     15316 MEMB     124      23SM     H13G     HAL2     0.900000E-01   1.00800           0
     15317 MEMB     124      23SM     C14F     CTL2    -0.180000       12.0110           0
     15318 MEMB     124      23SM     H14F     HAL2     0.900000E-01   1.00800           0
     15319 MEMB     124      23SM     H14G     HAL2     0.900000E-01   1.00800           0
     15320 MEMB     124      23SM     C15F     CTL2    -0.180000       12.0110           0
     15321 MEMB     124      23SM     H15F     HAL2     0.900000E-01   1.00800           0
     15322 MEMB     124      23SM     H15G     HAL2     0.900000E-01   1.00800           0
     15323 MEMB     124      23SM     C16F     CTL2    -0.180000       12.0110           0
     15324 MEMB     124      23SM     H16F     HAL2     0.900000E-01   1.00800           0
     15325 MEMB     124      23SM     H16G     HAL2     0.900000E-01   1.00800           0
     15326 MEMB     124      23SM     C17F     CTL2    -0.180000       12.0110           0
     15327 MEMB     124      23SM     H17F     HAL2     0.900000E-01   1.00800           0
     15328 MEMB     124      23SM     H17G     HAL2     0.900000E-01   1.00800           0
     15329 MEMB     124      23SM     C18F     CTL2    -0.180000       12.0110           0
     15330 MEMB     124      23SM     H18F     HAL2     0.900000E-01   1.00800           0
     15331 MEMB     124      23SM     H18G     HAL2     0.900000E-01   1.00800           0
     15332 MEMB     124      23SM     C19F     CTL2    -0.180000       12.0110           0
     15333 MEMB     124      23SM     H19F     HAL2     0.900000E-01   1.00800           0
     15334 MEMB     124      23SM     H19G     HAL2     0.900000E-01   1.00800           0
     15335 MEMB     124      23SM     C20F     CTL2    -0.180000       12.0110           0
     15336 MEMB     124      23SM     H20F     HAL2     0.900000E-01   1.00800           0
     15337 MEMB     124      23SM     H20G     HAL2     0.900000E-01   1.00800           0
     15338 MEMB     124      23SM     C21F     CTL2    -0.180000       12.0110           0
     15339 MEMB     124      23SM     H21F     HAL2     0.900000E-01   1.00800           0
     15340 MEMB     124      23SM     H21G     HAL2     0.900000E-01   1.00800           0
     15341 MEMB     124      23SM     C22F     CTL2    -0.180000       12.0110           0
     15342 MEMB     124      23SM     H22F     HAL2     0.900000E-01   1.00800           0
     15343 MEMB     124      23SM     H22G     HAL2     0.900000E-01   1.00800           0
     15344 MEMB     124      23SM     C23F     CTL3    -0.270000       12.0110           0
     15345 MEMB     124      23SM     H23F     HAL3     0.900000E-01   1.00800           0
     15346 MEMB     124      23SM     H23G     HAL3     0.900000E-01   1.00800           0
     15347 MEMB     124      23SM     H23H     HAL3     0.900000E-01   1.00800           0
     15348 MEMB     125      DOPC     N        NTL     -0.600000       14.0070           0
     15349 MEMB     125      DOPC     C12      CTL2    -0.100000       12.0110           0
     15350 MEMB     125      DOPC     H12A     HL       0.250000       1.00800           0
     15351 MEMB     125      DOPC     H12B     HL       0.250000       1.00800           0
     15352 MEMB     125      DOPC     C13      CTL5    -0.350000       12.0110           0
     15353 MEMB     125      DOPC     H13A     HL       0.250000       1.00800           0
     15354 MEMB     125      DOPC     H13B     HL       0.250000       1.00800           0
     15355 MEMB     125      DOPC     H13C     HL       0.250000       1.00800           0
     15356 MEMB     125      DOPC     C14      CTL5    -0.350000       12.0110           0
     15357 MEMB     125      DOPC     H14A     HL       0.250000       1.00800           0
     15358 MEMB     125      DOPC     H14B     HL       0.250000       1.00800           0
     15359 MEMB     125      DOPC     H14C     HL       0.250000       1.00800           0
     15360 MEMB     125      DOPC     C15      CTL5    -0.350000       12.0110           0
     15361 MEMB     125      DOPC     H15A     HL       0.250000       1.00800           0
     15362 MEMB     125      DOPC     H15B     HL       0.250000       1.00800           0
     15363 MEMB     125      DOPC     H15C     HL       0.250000       1.00800           0
     15364 MEMB     125      DOPC     C11      CTL2    -0.800000E-01   12.0110           0
     15365 MEMB     125      DOPC     H11A     HAL2     0.900000E-01   1.00800           0
     15366 MEMB     125      DOPC     H11B     HAL2     0.900000E-01   1.00800           0
     15367 MEMB     125      DOPC     P        PL        1.50000       30.9740           0
     15368 MEMB     125      DOPC     O13      O2L     -0.780000       15.9994           0
     15369 MEMB     125      DOPC     O14      O2L     -0.780000       15.9994           0
     15370 MEMB     125      DOPC     O12      OSLP    -0.570000       15.9994           0
     15371 MEMB     125      DOPC     O11      OSLP    -0.570000       15.9994           0
     15372 MEMB     125      DOPC     C1       CTL2    -0.800000E-01   12.0110           0
     15373 MEMB     125      DOPC     HA       HAL2     0.900000E-01   1.00800           0
     15374 MEMB     125      DOPC     HB       HAL2     0.900000E-01   1.00800           0
     15375 MEMB     125      DOPC     C2       CTL1     0.170000       12.0110           0
     15376 MEMB     125      DOPC     HS       HAL1     0.900000E-01   1.00800           0
     15377 MEMB     125      DOPC     O21      OSL     -0.490000       15.9994           0
     15378 MEMB     125      DOPC     C21      CL       0.900000       12.0110           0
     15379 MEMB     125      DOPC     O22      OBL     -0.630000       15.9994           0
     15380 MEMB     125      DOPC     C22      CTL2    -0.220000       12.0110           0
     15381 MEMB     125      DOPC     H2R      HAL2     0.900000E-01   1.00800           0
     15382 MEMB     125      DOPC     H2S      HAL2     0.900000E-01   1.00800           0
     15383 MEMB     125      DOPC     C3       CTL2     0.800000E-01   12.0110           0
     15384 MEMB     125      DOPC     HX       HAL2     0.900000E-01   1.00800           0
     15385 MEMB     125      DOPC     HY       HAL2     0.900000E-01   1.00800           0
     15386 MEMB     125      DOPC     O31      OSL     -0.490000       15.9994           0
     15387 MEMB     125      DOPC     C31      CL       0.900000       12.0110           0
     15388 MEMB     125      DOPC     O32      OBL     -0.630000       15.9994           0
     15389 MEMB     125      DOPC     C32      CTL2    -0.220000       12.0110           0
     15390 MEMB     125      DOPC     H2X      HAL2     0.900000E-01   1.00800           0
     15391 MEMB     125      DOPC     H2Y      HAL2     0.900000E-01   1.00800           0
     15392 MEMB     125      DOPC     C23      CTL2    -0.180000       12.0110           0
     15393 MEMB     125      DOPC     H3R      HAL2     0.900000E-01   1.00800           0
     15394 MEMB     125      DOPC     H3S      HAL2     0.900000E-01   1.00800           0
     15395 MEMB     125      DOPC     C24      CTL2    -0.180000       12.0110           0
     15396 MEMB     125      DOPC     H4R      HAL2     0.900000E-01   1.00800           0
     15397 MEMB     125      DOPC     H4S      HAL2     0.900000E-01   1.00800           0
     15398 MEMB     125      DOPC     C25      CTL2    -0.180000       12.0110           0
     15399 MEMB     125      DOPC     H5R      HAL2     0.900000E-01   1.00800           0
     15400 MEMB     125      DOPC     H5S      HAL2     0.900000E-01   1.00800           0
     15401 MEMB     125      DOPC     C26      CTL2    -0.180000       12.0110           0
     15402 MEMB     125      DOPC     H6R      HAL2     0.900000E-01   1.00800           0
     15403 MEMB     125      DOPC     H6S      HAL2     0.900000E-01   1.00800           0
     15404 MEMB     125      DOPC     C27      CTL2    -0.180000       12.0110           0
     15405 MEMB     125      DOPC     H7R      HAL2     0.900000E-01   1.00800           0
     15406 MEMB     125      DOPC     H7S      HAL2     0.900000E-01   1.00800           0
     15407 MEMB     125      DOPC     C28      CTL2    -0.180000       12.0110           0
     15408 MEMB     125      DOPC     H8R      HAL2     0.900000E-01   1.00800           0
     15409 MEMB     125      DOPC     H8S      HAL2     0.900000E-01   1.00800           0
     15410 MEMB     125      DOPC     C29      CEL1    -0.150000       12.0110           0
     15411 MEMB     125      DOPC     H9R      HEL1     0.150000       1.00800           0
     15412 MEMB     125      DOPC     C210     CEL1    -0.150000       12.0110           0
     15413 MEMB     125      DOPC     H10R     HEL1     0.150000       1.00800           0
     15414 MEMB     125      DOPC     C211     CTL2    -0.180000       12.0110           0
     15415 MEMB     125      DOPC     H11R     HAL2     0.900000E-01   1.00800           0
     15416 MEMB     125      DOPC     H11S     HAL2     0.900000E-01   1.00800           0
     15417 MEMB     125      DOPC     C212     CTL2    -0.180000       12.0110           0
     15418 MEMB     125      DOPC     H12R     HAL2     0.900000E-01   1.00800           0
     15419 MEMB     125      DOPC     H12S     HAL2     0.900000E-01   1.00800           0
     15420 MEMB     125      DOPC     C213     CTL2    -0.180000       12.0110           0
     15421 MEMB     125      DOPC     H13R     HAL2     0.900000E-01   1.00800           0
     15422 MEMB     125      DOPC     H13S     HAL2     0.900000E-01   1.00800           0
     15423 MEMB     125      DOPC     C214     CTL2    -0.180000       12.0110           0
     15424 MEMB     125      DOPC     H14R     HAL2     0.900000E-01   1.00800           0
     15425 MEMB     125      DOPC     H14S     HAL2     0.900000E-01   1.00800           0
     15426 MEMB     125      DOPC     C215     CTL2    -0.180000       12.0110           0
     15427 MEMB     125      DOPC     H15R     HAL2     0.900000E-01   1.00800           0
     15428 MEMB     125      DOPC     H15S     HAL2     0.900000E-01   1.00800           0
     15429 MEMB     125      DOPC     C216     CTL2    -0.180000       12.0110           0
     15430 MEMB     125      DOPC     H16R     HAL2     0.900000E-01   1.00800           0
     15431 MEMB     125      DOPC     H16S     HAL2     0.900000E-01   1.00800           0
     15432 MEMB     125      DOPC     C217     CTL2    -0.180000       12.0110           0
     15433 MEMB     125      DOPC     H17R     HAL2     0.900000E-01   1.00800           0
     15434 MEMB     125      DOPC     H17S     HAL2     0.900000E-01   1.00800           0
     15435 MEMB     125      DOPC     C218     CTL3    -0.270000       12.0110           0
     15436 MEMB     125      DOPC     H18R     HAL3     0.900000E-01   1.00800           0
     15437 MEMB     125      DOPC     H18S     HAL3     0.900000E-01   1.00800           0
     15438 MEMB     125      DOPC     H18T     HAL3     0.900000E-01   1.00800           0
     15439 MEMB     125      DOPC     C33      CTL2    -0.180000       12.0110           0
     15440 MEMB     125      DOPC     H3X      HAL2     0.900000E-01   1.00800           0
     15441 MEMB     125      DOPC     H3Y      HAL2     0.900000E-01   1.00800           0
     15442 MEMB     125      DOPC     C34      CTL2    -0.180000       12.0110           0
     15443 MEMB     125      DOPC     H4X      HAL2     0.900000E-01   1.00800           0
     15444 MEMB     125      DOPC     H4Y      HAL2     0.900000E-01   1.00800           0
     15445 MEMB     125      DOPC     C35      CTL2    -0.180000       12.0110           0
     15446 MEMB     125      DOPC     H5X      HAL2     0.900000E-01   1.00800           0
     15447 MEMB     125      DOPC     H5Y      HAL2     0.900000E-01   1.00800           0
     15448 MEMB     125      DOPC     C36      CTL2    -0.180000       12.0110           0
     15449 MEMB     125      DOPC     H6X      HAL2     0.900000E-01   1.00800           0
     15450 MEMB     125      DOPC     H6Y      HAL2     0.900000E-01   1.00800           0
     15451 MEMB     125      DOPC     C37      CTL2    -0.180000       12.0110           0
     15452 MEMB     125      DOPC     H7X      HAL2     0.900000E-01   1.00800           0
     15453 MEMB     125      DOPC     H7Y      HAL2     0.900000E-01   1.00800           0
     15454 MEMB     125      DOPC     C38      CTL2    -0.180000       12.0110           0
     15455 MEMB     125      DOPC     H8X      HAL2     0.900000E-01   1.00800           0
     15456 MEMB     125      DOPC     H8Y      HAL2     0.900000E-01   1.00800           0
     15457 MEMB     125      DOPC     C39      CEL1    -0.150000       12.0110           0
     15458 MEMB     125      DOPC     H9X      HEL1     0.150000       1.00800           0
     15459 MEMB     125      DOPC     C310     CEL1    -0.150000       12.0110           0
     15460 MEMB     125      DOPC     H10X     HEL1     0.150000       1.00800           0
     15461 MEMB     125      DOPC     C311     CTL2    -0.180000       12.0110           0
     15462 MEMB     125      DOPC     H11X     HAL2     0.900000E-01   1.00800           0
     15463 MEMB     125      DOPC     H11Y     HAL2     0.900000E-01   1.00800           0
     15464 MEMB     125      DOPC     C312     CTL2    -0.180000       12.0110           0
     15465 MEMB     125      DOPC     H12X     HAL2     0.900000E-01   1.00800           0
     15466 MEMB     125      DOPC     H12Y     HAL2     0.900000E-01   1.00800           0
     15467 MEMB     125      DOPC     C313     CTL2    -0.180000       12.0110           0
     15468 MEMB     125      DOPC     H13X     HAL2     0.900000E-01   1.00800           0
     15469 MEMB     125      DOPC     H13Y     HAL2     0.900000E-01   1.00800           0
     15470 MEMB     125      DOPC     C314     CTL2    -0.180000       12.0110           0
     15471 MEMB     125      DOPC     H14X     HAL2     0.900000E-01   1.00800           0
     15472 MEMB     125      DOPC     H14Y     HAL2     0.900000E-01   1.00800           0
     15473 MEMB     125      DOPC     C315     CTL2    -0.180000       12.0110           0
     15474 MEMB     125      DOPC     H15X     HAL2     0.900000E-01   1.00800           0
     15475 MEMB     125      DOPC     H15Y     HAL2     0.900000E-01   1.00800           0
     15476 MEMB     125      DOPC     C316     CTL2    -0.180000       12.0110           0
     15477 MEMB     125      DOPC     H16X     HAL2     0.900000E-01   1.00800           0
     15478 MEMB     125      DOPC     H16Y     HAL2     0.900000E-01   1.00800           0
     15479 MEMB     125      DOPC     C317     CTL2    -0.180000       12.0110           0
     15480 MEMB     125      DOPC     H17X     HAL2     0.900000E-01   1.00800           0
     15481 MEMB     125      DOPC     H17Y     HAL2     0.900000E-01   1.00800           0
     15482 MEMB     125      DOPC     C318     CTL3    -0.270000       12.0110           0
     15483 MEMB     125      DOPC     H18X     HAL3     0.900000E-01   1.00800           0
     15484 MEMB     125      DOPC     H18Y     HAL3     0.900000E-01   1.00800           0
     15485 MEMB     125      DOPC     H18Z     HAL3     0.900000E-01   1.00800           0
     15486 MEMB     126      DOPE     N        NH3L    -0.300000       14.0070           0
     15487 MEMB     126      DOPE     HN1      HCL      0.330000       1.00800           0
     15488 MEMB     126      DOPE     HN2      HCL      0.330000       1.00800           0
     15489 MEMB     126      DOPE     HN3      HCL      0.330000       1.00800           0
     15490 MEMB     126      DOPE     C12      CTL2     0.130000       12.0110           0
     15491 MEMB     126      DOPE     H12A     HAL2     0.900000E-01   1.00800           0
     15492 MEMB     126      DOPE     H12B     HAL2     0.900000E-01   1.00800           0
     15493 MEMB     126      DOPE     C11      CTL2    -0.800000E-01   12.0110           0
     15494 MEMB     126      DOPE     H11A     HAL2     0.900000E-01   1.00800           0
     15495 MEMB     126      DOPE     H11B     HAL2     0.900000E-01   1.00800           0
     15496 MEMB     126      DOPE     P        PL        1.50000       30.9740           0
     15497 MEMB     126      DOPE     O13      O2L     -0.780000       15.9994           0
     15498 MEMB     126      DOPE     O14      O2L     -0.780000       15.9994           0
     15499 MEMB     126      DOPE     O11      OSLP    -0.570000       15.9994           0
     15500 MEMB     126      DOPE     O12      OSLP    -0.570000       15.9994           0
     15501 MEMB     126      DOPE     C1       CTL2    -0.800000E-01   12.0110           0
     15502 MEMB     126      DOPE     HA       HAL2     0.900000E-01   1.00800           0
     15503 MEMB     126      DOPE     HB       HAL2     0.900000E-01   1.00800           0
     15504 MEMB     126      DOPE     C2       CTL1     0.170000       12.0110           0
     15505 MEMB     126      DOPE     HS       HAL1     0.900000E-01   1.00800           0
     15506 MEMB     126      DOPE     O21      OSL     -0.490000       15.9994           0
     15507 MEMB     126      DOPE     C21      CL       0.900000       12.0110           0
     15508 MEMB     126      DOPE     O22      OBL     -0.630000       15.9994           0
     15509 MEMB     126      DOPE     C22      CTL2    -0.220000       12.0110           0
     15510 MEMB     126      DOPE     H2R      HAL2     0.900000E-01   1.00800           0
     15511 MEMB     126      DOPE     H2S      HAL2     0.900000E-01   1.00800           0
     15512 MEMB     126      DOPE     C3       CTL2     0.800000E-01   12.0110           0
     15513 MEMB     126      DOPE     HX       HAL2     0.900000E-01   1.00800           0
     15514 MEMB     126      DOPE     HY       HAL2     0.900000E-01   1.00800           0
     15515 MEMB     126      DOPE     O31      OSL     -0.490000       15.9994           0
     15516 MEMB     126      DOPE     C31      CL       0.900000       12.0110           0
     15517 MEMB     126      DOPE     O32      OBL     -0.630000       15.9994           0
     15518 MEMB     126      DOPE     C32      CTL2    -0.220000       12.0110           0
     15519 MEMB     126      DOPE     H2X      HAL2     0.900000E-01   1.00800           0
     15520 MEMB     126      DOPE     H2Y      HAL2     0.900000E-01   1.00800           0
     15521 MEMB     126      DOPE     C23      CTL2    -0.180000       12.0110           0
     15522 MEMB     126      DOPE     H3R      HAL2     0.900000E-01   1.00800           0
     15523 MEMB     126      DOPE     H3S      HAL2     0.900000E-01   1.00800           0
     15524 MEMB     126      DOPE     C24      CTL2    -0.180000       12.0110           0
     15525 MEMB     126      DOPE     H4R      HAL2     0.900000E-01   1.00800           0
     15526 MEMB     126      DOPE     H4S      HAL2     0.900000E-01   1.00800           0
     15527 MEMB     126      DOPE     C25      CTL2    -0.180000       12.0110           0
     15528 MEMB     126      DOPE     H5R      HAL2     0.900000E-01   1.00800           0
     15529 MEMB     126      DOPE     H5S      HAL2     0.900000E-01   1.00800           0
     15530 MEMB     126      DOPE     C26      CTL2    -0.180000       12.0110           0
     15531 MEMB     126      DOPE     H6R      HAL2     0.900000E-01   1.00800           0
     15532 MEMB     126      DOPE     H6S      HAL2     0.900000E-01   1.00800           0
     15533 MEMB     126      DOPE     C27      CTL2    -0.180000       12.0110           0
     15534 MEMB     126      DOPE     H7R      HAL2     0.900000E-01   1.00800           0
     15535 MEMB     126      DOPE     H7S      HAL2     0.900000E-01   1.00800           0
     15536 MEMB     126      DOPE     C28      CTL2    -0.180000       12.0110           0
     15537 MEMB     126      DOPE     H8R      HAL2     0.900000E-01   1.00800           0
     15538 MEMB     126      DOPE     H8S      HAL2     0.900000E-01   1.00800           0
     15539 MEMB     126      DOPE     C29      CEL1    -0.150000       12.0110           0
     15540 MEMB     126      DOPE     H9R      HEL1     0.150000       1.00800           0
     15541 MEMB     126      DOPE     C210     CEL1    -0.150000       12.0110           0
     15542 MEMB     126      DOPE     H10R     HEL1     0.150000       1.00800           0
     15543 MEMB     126      DOPE     C211     CTL2    -0.180000       12.0110           0
     15544 MEMB     126      DOPE     H11R     HAL2     0.900000E-01   1.00800           0
     15545 MEMB     126      DOPE     H11S     HAL2     0.900000E-01   1.00800           0
     15546 MEMB     126      DOPE     C212     CTL2    -0.180000       12.0110           0
     15547 MEMB     126      DOPE     H12R     HAL2     0.900000E-01   1.00800           0
     15548 MEMB     126      DOPE     H12S     HAL2     0.900000E-01   1.00800           0
     15549 MEMB     126      DOPE     C213     CTL2    -0.180000       12.0110           0
     15550 MEMB     126      DOPE     H13R     HAL2     0.900000E-01   1.00800           0
     15551 MEMB     126      DOPE     H13S     HAL2     0.900000E-01   1.00800           0
     15552 MEMB     126      DOPE     C214     CTL2    -0.180000       12.0110           0
     15553 MEMB     126      DOPE     H14R     HAL2     0.900000E-01   1.00800           0
     15554 MEMB     126      DOPE     H14S     HAL2     0.900000E-01   1.00800           0
     15555 MEMB     126      DOPE     C215     CTL2    -0.180000       12.0110           0
     15556 MEMB     126      DOPE     H15R     HAL2     0.900000E-01   1.00800           0
     15557 MEMB     126      DOPE     H15S     HAL2     0.900000E-01   1.00800           0
     15558 MEMB     126      DOPE     C216     CTL2    -0.180000       12.0110           0
     15559 MEMB     126      DOPE     H16R     HAL2     0.900000E-01   1.00800           0
     15560 MEMB     126      DOPE     H16S     HAL2     0.900000E-01   1.00800           0
     15561 MEMB     126      DOPE     C217     CTL2    -0.180000       12.0110           0
     15562 MEMB     126      DOPE     H17R     HAL2     0.900000E-01   1.00800           0
     15563 MEMB     126      DOPE     H17S     HAL2     0.900000E-01   1.00800           0
     15564 MEMB     126      DOPE     C218     CTL3    -0.270000       12.0110           0
     15565 MEMB     126      DOPE     H18R     HAL3     0.900000E-01   1.00800           0
     15566 MEMB     126      DOPE     H18S     HAL3     0.900000E-01   1.00800           0
     15567 MEMB     126      DOPE     H18T     HAL3     0.900000E-01   1.00800           0
     15568 MEMB     126      DOPE     C33      CTL2    -0.180000       12.0110           0
     15569 MEMB     126      DOPE     H3X      HAL2     0.900000E-01   1.00800           0
     15570 MEMB     126      DOPE     H3Y      HAL2     0.900000E-01   1.00800           0
     15571 MEMB     126      DOPE     C34      CTL2    -0.180000       12.0110           0
     15572 MEMB     126      DOPE     H4X      HAL2     0.900000E-01   1.00800           0
     15573 MEMB     126      DOPE     H4Y      HAL2     0.900000E-01   1.00800           0
     15574 MEMB     126      DOPE     C35      CTL2    -0.180000       12.0110           0
     15575 MEMB     126      DOPE     H5X      HAL2     0.900000E-01   1.00800           0
     15576 MEMB     126      DOPE     H5Y      HAL2     0.900000E-01   1.00800           0
     15577 MEMB     126      DOPE     C36      CTL2    -0.180000       12.0110           0
     15578 MEMB     126      DOPE     H6X      HAL2     0.900000E-01   1.00800           0
     15579 MEMB     126      DOPE     H6Y      HAL2     0.900000E-01   1.00800           0
     15580 MEMB     126      DOPE     C37      CTL2    -0.180000       12.0110           0
     15581 MEMB     126      DOPE     H7X      HAL2     0.900000E-01   1.00800           0
     15582 MEMB     126      DOPE     H7Y      HAL2     0.900000E-01   1.00800           0
     15583 MEMB     126      DOPE     C38      CTL2    -0.180000       12.0110           0
     15584 MEMB     126      DOPE     H8X      HAL2     0.900000E-01   1.00800           0
     15585 MEMB     126      DOPE     H8Y      HAL2     0.900000E-01   1.00800           0
     15586 MEMB     126      DOPE     C39      CEL1    -0.150000       12.0110           0
     15587 MEMB     126      DOPE     H9X      HEL1     0.150000       1.00800           0
     15588 MEMB     126      DOPE     C310     CEL1    -0.150000       12.0110           0
     15589 MEMB     126      DOPE     H10X     HEL1     0.150000       1.00800           0
     15590 MEMB     126      DOPE     C311     CTL2    -0.180000       12.0110           0
     15591 MEMB     126      DOPE     H11X     HAL2     0.900000E-01   1.00800           0
     15592 MEMB     126      DOPE     H11Y     HAL2     0.900000E-01   1.00800           0
     15593 MEMB     126      DOPE     C312     CTL2    -0.180000       12.0110           0
     15594 MEMB     126      DOPE     H12X     HAL2     0.900000E-01   1.00800           0
     15595 MEMB     126      DOPE     H12Y     HAL2     0.900000E-01   1.00800           0
     15596 MEMB     126      DOPE     C313     CTL2    -0.180000       12.0110           0
     15597 MEMB     126      DOPE     H13X     HAL2     0.900000E-01   1.00800           0
     15598 MEMB     126      DOPE     H13Y     HAL2     0.900000E-01   1.00800           0
     15599 MEMB     126      DOPE     C314     CTL2    -0.180000       12.0110           0
     15600 MEMB     126      DOPE     H14X     HAL2     0.900000E-01   1.00800           0
     15601 MEMB     126      DOPE     H14Y     HAL2     0.900000E-01   1.00800           0
     15602 MEMB     126      DOPE     C315     CTL2    -0.180000       12.0110           0
     15603 MEMB     126      DOPE     H15X     HAL2     0.900000E-01   1.00800           0
     15604 MEMB     126      DOPE     H15Y     HAL2     0.900000E-01   1.00800           0
     15605 MEMB     126      DOPE     C316     CTL2    -0.180000       12.0110           0
     15606 MEMB     126      DOPE     H16X     HAL2     0.900000E-01   1.00800           0
     15607 MEMB     126      DOPE     H16Y     HAL2     0.900000E-01   1.00800           0
     15608 MEMB     126      DOPE     C317     CTL2    -0.180000       12.0110           0
     15609 MEMB     126      DOPE     H17X     HAL2     0.900000E-01   1.00800           0
     15610 MEMB     126      DOPE     H17Y     HAL2     0.900000E-01   1.00800           0
     15611 MEMB     126      DOPE     C318     CTL3    -0.270000       12.0110           0
     15612 MEMB     126      DOPE     H18X     HAL3     0.900000E-01   1.00800           0
     15613 MEMB     126      DOPE     H18Y     HAL3     0.900000E-01   1.00800           0
     15614 MEMB     126      DOPE     H18Z     HAL3     0.900000E-01   1.00800           0
     15615 MEMB     127      23SM     N        NTL     -0.600000       14.0070           0
     15616 MEMB     127      23SM     C15      CTL5    -0.350000       12.0110           0
     15617 MEMB     127      23SM     H15A     HL       0.250000       1.00800           0
     15618 MEMB     127      23SM     H15B     HL       0.250000       1.00800           0
     15619 MEMB     127      23SM     H15C     HL       0.250000       1.00800           0
     15620 MEMB     127      23SM     C14      CTL5    -0.350000       12.0110           0
     15621 MEMB     127      23SM     H14A     HL       0.250000       1.00800           0
     15622 MEMB     127      23SM     H14B     HL       0.250000       1.00800           0
     15623 MEMB     127      23SM     H14C     HL       0.250000       1.00800           0
     15624 MEMB     127      23SM     C13      CTL5    -0.350000       12.0110           0
     15625 MEMB     127      23SM     H13A     HL       0.250000       1.00800           0
     15626 MEMB     127      23SM     H13B     HL       0.250000       1.00800           0
     15627 MEMB     127      23SM     H13C     HL       0.250000       1.00800           0
     15628 MEMB     127      23SM     C12      CTL2    -0.100000       12.0110           0
     15629 MEMB     127      23SM     H12A     HL       0.250000       1.00800           0
     15630 MEMB     127      23SM     H12B     HL       0.250000       1.00800           0
     15631 MEMB     127      23SM     C11      CTL2    -0.800000E-01   12.0110           0
     15632 MEMB     127      23SM     H11A     HAL2     0.900000E-01   1.00800           0
     15633 MEMB     127      23SM     H11B     HAL2     0.900000E-01   1.00800           0
     15634 MEMB     127      23SM     P        PL        1.50000       30.9740           0
     15635 MEMB     127      23SM     O13      O2L     -0.780000       15.9994           0
     15636 MEMB     127      23SM     O14      O2L     -0.780000       15.9994           0
     15637 MEMB     127      23SM     O11      OSLP    -0.570000       15.9994           0
     15638 MEMB     127      23SM     O12      OSLP    -0.570000       15.9994           0
     15639 MEMB     127      23SM     C1S      CTL2    -0.800000E-01   12.0110           0
     15640 MEMB     127      23SM     H1S      HAL2     0.900000E-01   1.00800           0
     15641 MEMB     127      23SM     H1T      HAL2     0.900000E-01   1.00800           0
     15642 MEMB     127      23SM     NF       NHL     -0.700000       14.0070           0
     15643 MEMB     127      23SM     HNF      H        0.350000       1.00800           0
     15644 MEMB     127      23SM     C2S      CTL1     0.300000       12.0110           0
     15645 MEMB     127      23SM     H2S      HAL1     0.500000E-01   1.00800           0
     15646 MEMB     127      23SM     C3S      CTO1     0.500000       12.0110           0
     15647 MEMB     127      23SM     H3S      HAL1    -0.110000       1.00800           0
     15648 MEMB     127      23SM     O3       OHL     -0.690000       15.9994           0
     15649 MEMB     127      23SM     HO3      HOL      0.300000       1.00800           0
     15650 MEMB     127      23SM     C4S      CEL3    -0.150000       12.0110           0
     15651 MEMB     127      23SM     H4S      HEL1     0.150000       1.00800           0
     15652 MEMB     127      23SM     C5S      CEL3    -0.150000       12.0110           0
     15653 MEMB     127      23SM     H5S      HEL1     0.150000       1.00800           0
     15654 MEMB     127      23SM     C6S      CTL2    -0.180000       12.0110           0
     15655 MEMB     127      23SM     H6S      HAL2     0.900000E-01   1.00800           0
     15656 MEMB     127      23SM     H6T      HAL2     0.900000E-01   1.00800           0
     15657 MEMB     127      23SM     C7S      CTL2    -0.180000       12.0110           0
     15658 MEMB     127      23SM     H7S      HAL2     0.900000E-01   1.00800           0
     15659 MEMB     127      23SM     H7T      HAL2     0.900000E-01   1.00800           0
     15660 MEMB     127      23SM     C8S      CTL2    -0.180000       12.0110           0
     15661 MEMB     127      23SM     H8S      HAL2     0.900000E-01   1.00800           0
     15662 MEMB     127      23SM     H8T      HAL2     0.900000E-01   1.00800           0
     15663 MEMB     127      23SM     C9S      CTL2    -0.180000       12.0110           0
     15664 MEMB     127      23SM     H9S      HAL2     0.900000E-01   1.00800           0
     15665 MEMB     127      23SM     H9T      HAL2     0.900000E-01   1.00800           0
     15666 MEMB     127      23SM     C10S     CTL2    -0.180000       12.0110           0
     15667 MEMB     127      23SM     H10S     HAL2     0.900000E-01   1.00800           0
     15668 MEMB     127      23SM     H10T     HAL2     0.900000E-01   1.00800           0
     15669 MEMB     127      23SM     C11S     CTL2    -0.180000       12.0110           0
     15670 MEMB     127      23SM     H11S     HAL2     0.900000E-01   1.00800           0
     15671 MEMB     127      23SM     H11T     HAL2     0.900000E-01   1.00800           0
     15672 MEMB     127      23SM     C12S     CTL2    -0.180000       12.0110           0
     15673 MEMB     127      23SM     H12S     HAL2     0.900000E-01   1.00800           0
     15674 MEMB     127      23SM     H12T     HAL2     0.900000E-01   1.00800           0
     15675 MEMB     127      23SM     C13S     CTL2    -0.180000       12.0110           0
     15676 MEMB     127      23SM     H13S     HAL2     0.900000E-01   1.00800           0
     15677 MEMB     127      23SM     H13T     HAL2     0.900000E-01   1.00800           0
     15678 MEMB     127      23SM     C14S     CTL2    -0.180000       12.0110           0
     15679 MEMB     127      23SM     H14S     HAL2     0.900000E-01   1.00800           0
     15680 MEMB     127      23SM     H14T     HAL2     0.900000E-01   1.00800           0
     15681 MEMB     127      23SM     C15S     CTL2    -0.180000       12.0110           0
     15682 MEMB     127      23SM     H15S     HAL2     0.900000E-01   1.00800           0
     15683 MEMB     127      23SM     H15T     HAL2     0.900000E-01   1.00800           0
     15684 MEMB     127      23SM     C16S     CTL2    -0.180000       12.0110           0
     15685 MEMB     127      23SM     H16S     HAL2     0.900000E-01   1.00800           0
     15686 MEMB     127      23SM     H16T     HAL2     0.900000E-01   1.00800           0
     15687 MEMB     127      23SM     C17S     CTL2    -0.180000       12.0110           0
     15688 MEMB     127      23SM     H17S     HAL2     0.900000E-01   1.00800           0
     15689 MEMB     127      23SM     H17T     HAL2     0.900000E-01   1.00800           0
     15690 MEMB     127      23SM     C18S     CTL3    -0.270000       12.0110           0
     15691 MEMB     127      23SM     H18S     HAL3     0.900000E-01   1.00800           0
     15692 MEMB     127      23SM     H18T     HAL3     0.900000E-01   1.00800           0
     15693 MEMB     127      23SM     H18U     HAL3     0.900000E-01   1.00800           0
     15694 MEMB     127      23SM     C1F      C        0.550000       12.0110           0
     15695 MEMB     127      23SM     OF       O       -0.600000       15.9994           0
     15696 MEMB     127      23SM     C2F      CTL2    -0.700000E-01   12.0110           0
     15697 MEMB     127      23SM     H2F      HAL2     0.600000E-01   1.00800           0
     15698 MEMB     127      23SM     H2G      HAL2     0.600000E-01   1.00800           0
     15699 MEMB     127      23SM     C3F      CTL2    -0.180000       12.0110           0
     15700 MEMB     127      23SM     H3F      HAL2     0.900000E-01   1.00800           0
     15701 MEMB     127      23SM     H3G      HAL2     0.900000E-01   1.00800           0
     15702 MEMB     127      23SM     C4F      CTL2    -0.180000       12.0110           0
     15703 MEMB     127      23SM     H4F      HAL2     0.900000E-01   1.00800           0
     15704 MEMB     127      23SM     H4G      HAL2     0.900000E-01   1.00800           0
     15705 MEMB     127      23SM     C5F      CTL2    -0.180000       12.0110           0
     15706 MEMB     127      23SM     H5F      HAL2     0.900000E-01   1.00800           0
     15707 MEMB     127      23SM     H5G      HAL2     0.900000E-01   1.00800           0
     15708 MEMB     127      23SM     C6F      CTL2    -0.180000       12.0110           0
     15709 MEMB     127      23SM     H6F      HAL2     0.900000E-01   1.00800           0
     15710 MEMB     127      23SM     H6G      HAL2     0.900000E-01   1.00800           0
     15711 MEMB     127      23SM     C7F      CTL2    -0.180000       12.0110           0
     15712 MEMB     127      23SM     H7F      HAL2     0.900000E-01   1.00800           0
     15713 MEMB     127      23SM     H7G      HAL2     0.900000E-01   1.00800           0
     15714 MEMB     127      23SM     C8F      CTL2    -0.180000       12.0110           0
     15715 MEMB     127      23SM     H8F      HAL2     0.900000E-01   1.00800           0
     15716 MEMB     127      23SM     H8G      HAL2     0.900000E-01   1.00800           0
     15717 MEMB     127      23SM     C9F      CTL2    -0.180000       12.0110           0
     15718 MEMB     127      23SM     H9F      HAL2     0.900000E-01   1.00800           0
     15719 MEMB     127      23SM     H9G      HAL2     0.900000E-01   1.00800           0
     15720 MEMB     127      23SM     C10F     CTL2    -0.180000       12.0110           0
     15721 MEMB     127      23SM     H10F     HAL2     0.900000E-01   1.00800           0
     15722 MEMB     127      23SM     H10G     HAL2     0.900000E-01   1.00800           0
     15723 MEMB     127      23SM     C11F     CTL2    -0.180000       12.0110           0
     15724 MEMB     127      23SM     H11F     HAL2     0.900000E-01   1.00800           0
     15725 MEMB     127      23SM     H11G     HAL2     0.900000E-01   1.00800           0
     15726 MEMB     127      23SM     C12F     CTL2    -0.180000       12.0110           0
     15727 MEMB     127      23SM     H12F     HAL2     0.900000E-01   1.00800           0
     15728 MEMB     127      23SM     H12G     HAL2     0.900000E-01   1.00800           0
     15729 MEMB     127      23SM     C13F     CTL2    -0.180000       12.0110           0
     15730 MEMB     127      23SM     H13F     HAL2     0.900000E-01   1.00800           0
     15731 MEMB     127      23SM     H13G     HAL2     0.900000E-01   1.00800           0
     15732 MEMB     127      23SM     C14F     CTL2    -0.180000       12.0110           0
     15733 MEMB     127      23SM     H14F     HAL2     0.900000E-01   1.00800           0
     15734 MEMB     127      23SM     H14G     HAL2     0.900000E-01   1.00800           0
     15735 MEMB     127      23SM     C15F     CTL2    -0.180000       12.0110           0
     15736 MEMB     127      23SM     H15F     HAL2     0.900000E-01   1.00800           0
     15737 MEMB     127      23SM     H15G     HAL2     0.900000E-01   1.00800           0
     15738 MEMB     127      23SM     C16F     CTL2    -0.180000       12.0110           0
     15739 MEMB     127      23SM     H16F     HAL2     0.900000E-01   1.00800           0
     15740 MEMB     127      23SM     H16G     HAL2     0.900000E-01   1.00800           0
     15741 MEMB     127      23SM     C17F     CTL2    -0.180000       12.0110           0
     15742 MEMB     127      23SM     H17F     HAL2     0.900000E-01   1.00800           0
     15743 MEMB     127      23SM     H17G     HAL2     0.900000E-01   1.00800           0
     15744 MEMB     127      23SM     C18F     CTL2    -0.180000       12.0110           0
     15745 MEMB     127      23SM     H18F     HAL2     0.900000E-01   1.00800           0
     15746 MEMB     127      23SM     H18G     HAL2     0.900000E-01   1.00800           0
     15747 MEMB     127      23SM     C19F     CTL2    -0.180000       12.0110           0
     15748 MEMB     127      23SM     H19F     HAL2     0.900000E-01   1.00800           0
     15749 MEMB     127      23SM     H19G     HAL2     0.900000E-01   1.00800           0
     15750 MEMB     127      23SM     C20F     CTL2    -0.180000       12.0110           0
     15751 MEMB     127      23SM     H20F     HAL2     0.900000E-01   1.00800           0
     15752 MEMB     127      23SM     H20G     HAL2     0.900000E-01   1.00800           0
     15753 MEMB     127      23SM     C21F     CTL2    -0.180000       12.0110           0
     15754 MEMB     127      23SM     H21F     HAL2     0.900000E-01   1.00800           0
     15755 MEMB     127      23SM     H21G     HAL2     0.900000E-01   1.00800           0
     15756 MEMB     127      23SM     C22F     CTL2    -0.180000       12.0110           0
     15757 MEMB     127      23SM     H22F     HAL2     0.900000E-01   1.00800           0
     15758 MEMB     127      23SM     H22G     HAL2     0.900000E-01   1.00800           0
     15759 MEMB     127      23SM     C23F     CTL3    -0.270000       12.0110           0
     15760 MEMB     127      23SM     H23F     HAL3     0.900000E-01   1.00800           0
     15761 MEMB     127      23SM     H23G     HAL3     0.900000E-01   1.00800           0
     15762 MEMB     127      23SM     H23H     HAL3     0.900000E-01   1.00800           0
     15763 MEMB     128      23SM     N        NTL     -0.600000       14.0070           0
     15764 MEMB     128      23SM     C15      CTL5    -0.350000       12.0110           0
     15765 MEMB     128      23SM     H15A     HL       0.250000       1.00800           0
     15766 MEMB     128      23SM     H15B     HL       0.250000       1.00800           0
     15767 MEMB     128      23SM     H15C     HL       0.250000       1.00800           0
     15768 MEMB     128      23SM     C14      CTL5    -0.350000       12.0110           0
     15769 MEMB     128      23SM     H14A     HL       0.250000       1.00800           0
     15770 MEMB     128      23SM     H14B     HL       0.250000       1.00800           0
     15771 MEMB     128      23SM     H14C     HL       0.250000       1.00800           0
     15772 MEMB     128      23SM     C13      CTL5    -0.350000       12.0110           0
     15773 MEMB     128      23SM     H13A     HL       0.250000       1.00800           0
     15774 MEMB     128      23SM     H13B     HL       0.250000       1.00800           0
     15775 MEMB     128      23SM     H13C     HL       0.250000       1.00800           0
     15776 MEMB     128      23SM     C12      CTL2    -0.100000       12.0110           0
     15777 MEMB     128      23SM     H12A     HL       0.250000       1.00800           0
     15778 MEMB     128      23SM     H12B     HL       0.250000       1.00800           0
     15779 MEMB     128      23SM     C11      CTL2    -0.800000E-01   12.0110           0
     15780 MEMB     128      23SM     H11A     HAL2     0.900000E-01   1.00800           0
     15781 MEMB     128      23SM     H11B     HAL2     0.900000E-01   1.00800           0
     15782 MEMB     128      23SM     P        PL        1.50000       30.9740           0
     15783 MEMB     128      23SM     O13      O2L     -0.780000       15.9994           0
     15784 MEMB     128      23SM     O14      O2L     -0.780000       15.9994           0
     15785 MEMB     128      23SM     O11      OSLP    -0.570000       15.9994           0
     15786 MEMB     128      23SM     O12      OSLP    -0.570000       15.9994           0
     15787 MEMB     128      23SM     C1S      CTL2    -0.800000E-01   12.0110           0
     15788 MEMB     128      23SM     H1S      HAL2     0.900000E-01   1.00800           0
     15789 MEMB     128      23SM     H1T      HAL2     0.900000E-01   1.00800           0
     15790 MEMB     128      23SM     NF       NHL     -0.700000       14.0070           0
     15791 MEMB     128      23SM     HNF      H        0.350000       1.00800           0
     15792 MEMB     128      23SM     C2S      CTL1     0.300000       12.0110           0
     15793 MEMB     128      23SM     H2S      HAL1     0.500000E-01   1.00800           0
     15794 MEMB     128      23SM     C3S      CTO1     0.500000       12.0110           0
     15795 MEMB     128      23SM     H3S      HAL1    -0.110000       1.00800           0
     15796 MEMB     128      23SM     O3       OHL     -0.690000       15.9994           0
     15797 MEMB     128      23SM     HO3      HOL      0.300000       1.00800           0
     15798 MEMB     128      23SM     C4S      CEL3    -0.150000       12.0110           0
     15799 MEMB     128      23SM     H4S      HEL1     0.150000       1.00800           0
     15800 MEMB     128      23SM     C5S      CEL3    -0.150000       12.0110           0
     15801 MEMB     128      23SM     H5S      HEL1     0.150000       1.00800           0
     15802 MEMB     128      23SM     C6S      CTL2    -0.180000       12.0110           0
     15803 MEMB     128      23SM     H6S      HAL2     0.900000E-01   1.00800           0
     15804 MEMB     128      23SM     H6T      HAL2     0.900000E-01   1.00800           0
     15805 MEMB     128      23SM     C7S      CTL2    -0.180000       12.0110           0
     15806 MEMB     128      23SM     H7S      HAL2     0.900000E-01   1.00800           0
     15807 MEMB     128      23SM     H7T      HAL2     0.900000E-01   1.00800           0
     15808 MEMB     128      23SM     C8S      CTL2    -0.180000       12.0110           0
     15809 MEMB     128      23SM     H8S      HAL2     0.900000E-01   1.00800           0
     15810 MEMB     128      23SM     H8T      HAL2     0.900000E-01   1.00800           0
     15811 MEMB     128      23SM     C9S      CTL2    -0.180000       12.0110           0
     15812 MEMB     128      23SM     H9S      HAL2     0.900000E-01   1.00800           0
     15813 MEMB     128      23SM     H9T      HAL2     0.900000E-01   1.00800           0
     15814 MEMB     128      23SM     C10S     CTL2    -0.180000       12.0110           0
     15815 MEMB     128      23SM     H10S     HAL2     0.900000E-01   1.00800           0
     15816 MEMB     128      23SM     H10T     HAL2     0.900000E-01   1.00800           0
     15817 MEMB     128      23SM     C11S     CTL2    -0.180000       12.0110           0
     15818 MEMB     128      23SM     H11S     HAL2     0.900000E-01   1.00800           0
     15819 MEMB     128      23SM     H11T     HAL2     0.900000E-01   1.00800           0
     15820 MEMB     128      23SM     C12S     CTL2    -0.180000       12.0110           0
     15821 MEMB     128      23SM     H12S     HAL2     0.900000E-01   1.00800           0
     15822 MEMB     128      23SM     H12T     HAL2     0.900000E-01   1.00800           0
     15823 MEMB     128      23SM     C13S     CTL2    -0.180000       12.0110           0
     15824 MEMB     128      23SM     H13S     HAL2     0.900000E-01   1.00800           0
     15825 MEMB     128      23SM     H13T     HAL2     0.900000E-01   1.00800           0
     15826 MEMB     128      23SM     C14S     CTL2    -0.180000       12.0110           0
     15827 MEMB     128      23SM     H14S     HAL2     0.900000E-01   1.00800           0
     15828 MEMB     128      23SM     H14T     HAL2     0.900000E-01   1.00800           0
     15829 MEMB     128      23SM     C15S     CTL2    -0.180000       12.0110           0
     15830 MEMB     128      23SM     H15S     HAL2     0.900000E-01   1.00800           0
     15831 MEMB     128      23SM     H15T     HAL2     0.900000E-01   1.00800           0
     15832 MEMB     128      23SM     C16S     CTL2    -0.180000       12.0110           0
     15833 MEMB     128      23SM     H16S     HAL2     0.900000E-01   1.00800           0
     15834 MEMB     128      23SM     H16T     HAL2     0.900000E-01   1.00800           0
     15835 MEMB     128      23SM     C17S     CTL2    -0.180000       12.0110           0
     15836 MEMB     128      23SM     H17S     HAL2     0.900000E-01   1.00800           0
     15837 MEMB     128      23SM     H17T     HAL2     0.900000E-01   1.00800           0
     15838 MEMB     128      23SM     C18S     CTL3    -0.270000       12.0110           0
     15839 MEMB     128      23SM     H18S     HAL3     0.900000E-01   1.00800           0
     15840 MEMB     128      23SM     H18T     HAL3     0.900000E-01   1.00800           0
     15841 MEMB     128      23SM     H18U     HAL3     0.900000E-01   1.00800           0
     15842 MEMB     128      23SM     C1F      C        0.550000       12.0110           0
     15843 MEMB     128      23SM     OF       O       -0.600000       15.9994           0
     15844 MEMB     128      23SM     C2F      CTL2    -0.700000E-01   12.0110           0
     15845 MEMB     128      23SM     H2F      HAL2     0.600000E-01   1.00800           0
     15846 MEMB     128      23SM     H2G      HAL2     0.600000E-01   1.00800           0
     15847 MEMB     128      23SM     C3F      CTL2    -0.180000       12.0110           0
     15848 MEMB     128      23SM     H3F      HAL2     0.900000E-01   1.00800           0
     15849 MEMB     128      23SM     H3G      HAL2     0.900000E-01   1.00800           0
     15850 MEMB     128      23SM     C4F      CTL2    -0.180000       12.0110           0
     15851 MEMB     128      23SM     H4F      HAL2     0.900000E-01   1.00800           0
     15852 MEMB     128      23SM     H4G      HAL2     0.900000E-01   1.00800           0
     15853 MEMB     128      23SM     C5F      CTL2    -0.180000       12.0110           0
     15854 MEMB     128      23SM     H5F      HAL2     0.900000E-01   1.00800           0
     15855 MEMB     128      23SM     H5G      HAL2     0.900000E-01   1.00800           0
     15856 MEMB     128      23SM     C6F      CTL2    -0.180000       12.0110           0
     15857 MEMB     128      23SM     H6F      HAL2     0.900000E-01   1.00800           0
     15858 MEMB     128      23SM     H6G      HAL2     0.900000E-01   1.00800           0
     15859 MEMB     128      23SM     C7F      CTL2    -0.180000       12.0110           0
     15860 MEMB     128      23SM     H7F      HAL2     0.900000E-01   1.00800           0
     15861 MEMB     128      23SM     H7G      HAL2     0.900000E-01   1.00800           0
     15862 MEMB     128      23SM     C8F      CTL2    -0.180000       12.0110           0
     15863 MEMB     128      23SM     H8F      HAL2     0.900000E-01   1.00800           0
     15864 MEMB     128      23SM     H8G      HAL2     0.900000E-01   1.00800           0
     15865 MEMB     128      23SM     C9F      CTL2    -0.180000       12.0110           0
     15866 MEMB     128      23SM     H9F      HAL2     0.900000E-01   1.00800           0
     15867 MEMB     128      23SM     H9G      HAL2     0.900000E-01   1.00800           0
     15868 MEMB     128      23SM     C10F     CTL2    -0.180000       12.0110           0
     15869 MEMB     128      23SM     H10F     HAL2     0.900000E-01   1.00800           0
     15870 MEMB     128      23SM     H10G     HAL2     0.900000E-01   1.00800           0
     15871 MEMB     128      23SM     C11F     CTL2    -0.180000       12.0110           0
     15872 MEMB     128      23SM     H11F     HAL2     0.900000E-01   1.00800           0
     15873 MEMB     128      23SM     H11G     HAL2     0.900000E-01   1.00800           0
     15874 MEMB     128      23SM     C12F     CTL2    -0.180000       12.0110           0
     15875 MEMB     128      23SM     H12F     HAL2     0.900000E-01   1.00800           0
     15876 MEMB     128      23SM     H12G     HAL2     0.900000E-01   1.00800           0
     15877 MEMB     128      23SM     C13F     CTL2    -0.180000       12.0110           0
     15878 MEMB     128      23SM     H13F     HAL2     0.900000E-01   1.00800           0
     15879 MEMB     128      23SM     H13G     HAL2     0.900000E-01   1.00800           0
     15880 MEMB     128      23SM     C14F     CTL2    -0.180000       12.0110           0
     15881 MEMB     128      23SM     H14F     HAL2     0.900000E-01   1.00800           0
     15882 MEMB     128      23SM     H14G     HAL2     0.900000E-01   1.00800           0
     15883 MEMB     128      23SM     C15F     CTL2    -0.180000       12.0110           0
     15884 MEMB     128      23SM     H15F     HAL2     0.900000E-01   1.00800           0
     15885 MEMB     128      23SM     H15G     HAL2     0.900000E-01   1.00800           0
     15886 MEMB     128      23SM     C16F     CTL2    -0.180000       12.0110           0
     15887 MEMB     128      23SM     H16F     HAL2     0.900000E-01   1.00800           0
     15888 MEMB     128      23SM     H16G     HAL2     0.900000E-01   1.00800           0
     15889 MEMB     128      23SM     C17F     CTL2    -0.180000       12.0110           0
     15890 MEMB     128      23SM     H17F     HAL2     0.900000E-01   1.00800           0
     15891 MEMB     128      23SM     H17G     HAL2     0.900000E-01   1.00800           0
     15892 MEMB     128      23SM     C18F     CTL2    -0.180000       12.0110           0
     15893 MEMB     128      23SM     H18F     HAL2     0.900000E-01   1.00800           0
     15894 MEMB     128      23SM     H18G     HAL2     0.900000E-01   1.00800           0
     15895 MEMB     128      23SM     C19F     CTL2    -0.180000       12.0110           0
     15896 MEMB     128      23SM     H19F     HAL2     0.900000E-01   1.00800           0
     15897 MEMB     128      23SM     H19G     HAL2     0.900000E-01   1.00800           0
     15898 MEMB     128      23SM     C20F     CTL2    -0.180000       12.0110           0
     15899 MEMB     128      23SM     H20F     HAL2     0.900000E-01   1.00800           0
     15900 MEMB     128      23SM     H20G     HAL2     0.900000E-01   1.00800           0
     15901 MEMB     128      23SM     C21F     CTL2    -0.180000       12.0110           0
     15902 MEMB     128      23SM     H21F     HAL2     0.900000E-01   1.00800           0
     15903 MEMB     128      23SM     H21G     HAL2     0.900000E-01   1.00800           0
     15904 MEMB     128      23SM     C22F     CTL2    -0.180000       12.0110           0
     15905 MEMB     128      23SM     H22F     HAL2     0.900000E-01   1.00800           0
     15906 MEMB     128      23SM     H22G     HAL2     0.900000E-01   1.00800           0
     15907 MEMB     128      23SM     C23F     CTL3    -0.270000       12.0110           0
     15908 MEMB     128      23SM     H23F     HAL3     0.900000E-01   1.00800           0
     15909 MEMB     128      23SM     H23G     HAL3     0.900000E-01   1.00800           0
     15910 MEMB     128      23SM     H23H     HAL3     0.900000E-01   1.00800           0
     15911 MEMB     129      DOPC     N        NTL     -0.600000       14.0070           0
     15912 MEMB     129      DOPC     C12      CTL2    -0.100000       12.0110           0
     15913 MEMB     129      DOPC     H12A     HL       0.250000       1.00800           0
     15914 MEMB     129      DOPC     H12B     HL       0.250000       1.00800           0
     15915 MEMB     129      DOPC     C13      CTL5    -0.350000       12.0110           0
     15916 MEMB     129      DOPC     H13A     HL       0.250000       1.00800           0
     15917 MEMB     129      DOPC     H13B     HL       0.250000       1.00800           0
     15918 MEMB     129      DOPC     H13C     HL       0.250000       1.00800           0
     15919 MEMB     129      DOPC     C14      CTL5    -0.350000       12.0110           0
     15920 MEMB     129      DOPC     H14A     HL       0.250000       1.00800           0
     15921 MEMB     129      DOPC     H14B     HL       0.250000       1.00800           0
     15922 MEMB     129      DOPC     H14C     HL       0.250000       1.00800           0
     15923 MEMB     129      DOPC     C15      CTL5    -0.350000       12.0110           0
     15924 MEMB     129      DOPC     H15A     HL       0.250000       1.00800           0
     15925 MEMB     129      DOPC     H15B     HL       0.250000       1.00800           0
     15926 MEMB     129      DOPC     H15C     HL       0.250000       1.00800           0
     15927 MEMB     129      DOPC     C11      CTL2    -0.800000E-01   12.0110           0
     15928 MEMB     129      DOPC     H11A     HAL2     0.900000E-01   1.00800           0
     15929 MEMB     129      DOPC     H11B     HAL2     0.900000E-01   1.00800           0
     15930 MEMB     129      DOPC     P        PL        1.50000       30.9740           0
     15931 MEMB     129      DOPC     O13      O2L     -0.780000       15.9994           0
     15932 MEMB     129      DOPC     O14      O2L     -0.780000       15.9994           0
     15933 MEMB     129      DOPC     O12      OSLP    -0.570000       15.9994           0
     15934 MEMB     129      DOPC     O11      OSLP    -0.570000       15.9994           0
     15935 MEMB     129      DOPC     C1       CTL2    -0.800000E-01   12.0110           0
     15936 MEMB     129      DOPC     HA       HAL2     0.900000E-01   1.00800           0
     15937 MEMB     129      DOPC     HB       HAL2     0.900000E-01   1.00800           0
     15938 MEMB     129      DOPC     C2       CTL1     0.170000       12.0110           0
     15939 MEMB     129      DOPC     HS       HAL1     0.900000E-01   1.00800           0
     15940 MEMB     129      DOPC     O21      OSL     -0.490000       15.9994           0
     15941 MEMB     129      DOPC     C21      CL       0.900000       12.0110           0
     15942 MEMB     129      DOPC     O22      OBL     -0.630000       15.9994           0
     15943 MEMB     129      DOPC     C22      CTL2    -0.220000       12.0110           0
     15944 MEMB     129      DOPC     H2R      HAL2     0.900000E-01   1.00800           0
     15945 MEMB     129      DOPC     H2S      HAL2     0.900000E-01   1.00800           0
     15946 MEMB     129      DOPC     C3       CTL2     0.800000E-01   12.0110           0
     15947 MEMB     129      DOPC     HX       HAL2     0.900000E-01   1.00800           0
     15948 MEMB     129      DOPC     HY       HAL2     0.900000E-01   1.00800           0
     15949 MEMB     129      DOPC     O31      OSL     -0.490000       15.9994           0
     15950 MEMB     129      DOPC     C31      CL       0.900000       12.0110           0
     15951 MEMB     129      DOPC     O32      OBL     -0.630000       15.9994           0
     15952 MEMB     129      DOPC     C32      CTL2    -0.220000       12.0110           0
     15953 MEMB     129      DOPC     H2X      HAL2     0.900000E-01   1.00800           0
     15954 MEMB     129      DOPC     H2Y      HAL2     0.900000E-01   1.00800           0
     15955 MEMB     129      DOPC     C23      CTL2    -0.180000       12.0110           0
     15956 MEMB     129      DOPC     H3R      HAL2     0.900000E-01   1.00800           0
     15957 MEMB     129      DOPC     H3S      HAL2     0.900000E-01   1.00800           0
     15958 MEMB     129      DOPC     C24      CTL2    -0.180000       12.0110           0
     15959 MEMB     129      DOPC     H4R      HAL2     0.900000E-01   1.00800           0
     15960 MEMB     129      DOPC     H4S      HAL2     0.900000E-01   1.00800           0
     15961 MEMB     129      DOPC     C25      CTL2    -0.180000       12.0110           0
     15962 MEMB     129      DOPC     H5R      HAL2     0.900000E-01   1.00800           0
     15963 MEMB     129      DOPC     H5S      HAL2     0.900000E-01   1.00800           0
     15964 MEMB     129      DOPC     C26      CTL2    -0.180000       12.0110           0
     15965 MEMB     129      DOPC     H6R      HAL2     0.900000E-01   1.00800           0
     15966 MEMB     129      DOPC     H6S      HAL2     0.900000E-01   1.00800           0
     15967 MEMB     129      DOPC     C27      CTL2    -0.180000       12.0110           0
     15968 MEMB     129      DOPC     H7R      HAL2     0.900000E-01   1.00800           0
     15969 MEMB     129      DOPC     H7S      HAL2     0.900000E-01   1.00800           0
     15970 MEMB     129      DOPC     C28      CTL2    -0.180000       12.0110           0
     15971 MEMB     129      DOPC     H8R      HAL2     0.900000E-01   1.00800           0
     15972 MEMB     129      DOPC     H8S      HAL2     0.900000E-01   1.00800           0
     15973 MEMB     129      DOPC     C29      CEL1    -0.150000       12.0110           0
     15974 MEMB     129      DOPC     H9R      HEL1     0.150000       1.00800           0
     15975 MEMB     129      DOPC     C210     CEL1    -0.150000       12.0110           0
     15976 MEMB     129      DOPC     H10R     HEL1     0.150000       1.00800           0
     15977 MEMB     129      DOPC     C211     CTL2    -0.180000       12.0110           0
     15978 MEMB     129      DOPC     H11R     HAL2     0.900000E-01   1.00800           0
     15979 MEMB     129      DOPC     H11S     HAL2     0.900000E-01   1.00800           0
     15980 MEMB     129      DOPC     C212     CTL2    -0.180000       12.0110           0
     15981 MEMB     129      DOPC     H12R     HAL2     0.900000E-01   1.00800           0
     15982 MEMB     129      DOPC     H12S     HAL2     0.900000E-01   1.00800           0
     15983 MEMB     129      DOPC     C213     CTL2    -0.180000       12.0110           0
     15984 MEMB     129      DOPC     H13R     HAL2     0.900000E-01   1.00800           0
     15985 MEMB     129      DOPC     H13S     HAL2     0.900000E-01   1.00800           0
     15986 MEMB     129      DOPC     C214     CTL2    -0.180000       12.0110           0
     15987 MEMB     129      DOPC     H14R     HAL2     0.900000E-01   1.00800           0
     15988 MEMB     129      DOPC     H14S     HAL2     0.900000E-01   1.00800           0
     15989 MEMB     129      DOPC     C215     CTL2    -0.180000       12.0110           0
     15990 MEMB     129      DOPC     H15R     HAL2     0.900000E-01   1.00800           0
     15991 MEMB     129      DOPC     H15S     HAL2     0.900000E-01   1.00800           0
     15992 MEMB     129      DOPC     C216     CTL2    -0.180000       12.0110           0
     15993 MEMB     129      DOPC     H16R     HAL2     0.900000E-01   1.00800           0
     15994 MEMB     129      DOPC     H16S     HAL2     0.900000E-01   1.00800           0
     15995 MEMB     129      DOPC     C217     CTL2    -0.180000       12.0110           0
     15996 MEMB     129      DOPC     H17R     HAL2     0.900000E-01   1.00800           0
     15997 MEMB     129      DOPC     H17S     HAL2     0.900000E-01   1.00800           0
     15998 MEMB     129      DOPC     C218     CTL3    -0.270000       12.0110           0
     15999 MEMB     129      DOPC     H18R     HAL3     0.900000E-01   1.00800           0
     16000 MEMB     129      DOPC     H18S     HAL3     0.900000E-01   1.00800           0
     16001 MEMB     129      DOPC     H18T     HAL3     0.900000E-01   1.00800           0
     16002 MEMB     129      DOPC     C33      CTL2    -0.180000       12.0110           0
     16003 MEMB     129      DOPC     H3X      HAL2     0.900000E-01   1.00800           0
     16004 MEMB     129      DOPC     H3Y      HAL2     0.900000E-01   1.00800           0
     16005 MEMB     129      DOPC     C34      CTL2    -0.180000       12.0110           0
     16006 MEMB     129      DOPC     H4X      HAL2     0.900000E-01   1.00800           0
     16007 MEMB     129      DOPC     H4Y      HAL2     0.900000E-01   1.00800           0
     16008 MEMB     129      DOPC     C35      CTL2    -0.180000       12.0110           0
     16009 MEMB     129      DOPC     H5X      HAL2     0.900000E-01   1.00800           0
     16010 MEMB     129      DOPC     H5Y      HAL2     0.900000E-01   1.00800           0
     16011 MEMB     129      DOPC     C36      CTL2    -0.180000       12.0110           0
     16012 MEMB     129      DOPC     H6X      HAL2     0.900000E-01   1.00800           0
     16013 MEMB     129      DOPC     H6Y      HAL2     0.900000E-01   1.00800           0
     16014 MEMB     129      DOPC     C37      CTL2    -0.180000       12.0110           0
     16015 MEMB     129      DOPC     H7X      HAL2     0.900000E-01   1.00800           0
     16016 MEMB     129      DOPC     H7Y      HAL2     0.900000E-01   1.00800           0
     16017 MEMB     129      DOPC     C38      CTL2    -0.180000       12.0110           0
     16018 MEMB     129      DOPC     H8X      HAL2     0.900000E-01   1.00800           0
     16019 MEMB     129      DOPC     H8Y      HAL2     0.900000E-01   1.00800           0
     16020 MEMB     129      DOPC     C39      CEL1    -0.150000       12.0110           0
     16021 MEMB     129      DOPC     H9X      HEL1     0.150000       1.00800           0
     16022 MEMB     129      DOPC     C310     CEL1    -0.150000       12.0110           0
     16023 MEMB     129      DOPC     H10X     HEL1     0.150000       1.00800           0
     16024 MEMB     129      DOPC     C311     CTL2    -0.180000       12.0110           0
     16025 MEMB     129      DOPC     H11X     HAL2     0.900000E-01   1.00800           0
     16026 MEMB     129      DOPC     H11Y     HAL2     0.900000E-01   1.00800           0
     16027 MEMB     129      DOPC     C312     CTL2    -0.180000       12.0110           0
     16028 MEMB     129      DOPC     H12X     HAL2     0.900000E-01   1.00800           0
     16029 MEMB     129      DOPC     H12Y     HAL2     0.900000E-01   1.00800           0
     16030 MEMB     129      DOPC     C313     CTL2    -0.180000       12.0110           0
     16031 MEMB     129      DOPC     H13X     HAL2     0.900000E-01   1.00800           0
     16032 MEMB     129      DOPC     H13Y     HAL2     0.900000E-01   1.00800           0
     16033 MEMB     129      DOPC     C314     CTL2    -0.180000       12.0110           0
     16034 MEMB     129      DOPC     H14X     HAL2     0.900000E-01   1.00800           0
     16035 MEMB     129      DOPC     H14Y     HAL2     0.900000E-01   1.00800           0
     16036 MEMB     129      DOPC     C315     CTL2    -0.180000       12.0110           0
     16037 MEMB     129      DOPC     H15X     HAL2     0.900000E-01   1.00800           0
     16038 MEMB     129      DOPC     H15Y     HAL2     0.900000E-01   1.00800           0
     16039 MEMB     129      DOPC     C316     CTL2    -0.180000       12.0110           0
     16040 MEMB     129      DOPC     H16X     HAL2     0.900000E-01   1.00800           0
     16041 MEMB     129      DOPC     H16Y     HAL2     0.900000E-01   1.00800           0
     16042 MEMB     129      DOPC     C317     CTL2    -0.180000       12.0110           0
     16043 MEMB     129      DOPC     H17X     HAL2     0.900000E-01   1.00800           0
     16044 MEMB     129      DOPC     H17Y     HAL2     0.900000E-01   1.00800           0
     16045 MEMB     129      DOPC     C318     CTL3    -0.270000       12.0110           0
     16046 MEMB     129      DOPC     H18X     HAL3     0.900000E-01   1.00800           0
     16047 MEMB     129      DOPC     H18Y     HAL3     0.900000E-01   1.00800           0
     16048 MEMB     129      DOPC     H18Z     HAL3     0.900000E-01   1.00800           0
     16049 MEMB     130      DOPC     N        NTL     -0.600000       14.0070           0
     16050 MEMB     130      DOPC     C12      CTL2    -0.100000       12.0110           0
     16051 MEMB     130      DOPC     H12A     HL       0.250000       1.00800           0
     16052 MEMB     130      DOPC     H12B     HL       0.250000       1.00800           0
     16053 MEMB     130      DOPC     C13      CTL5    -0.350000       12.0110           0
     16054 MEMB     130      DOPC     H13A     HL       0.250000       1.00800           0
     16055 MEMB     130      DOPC     H13B     HL       0.250000       1.00800           0
     16056 MEMB     130      DOPC     H13C     HL       0.250000       1.00800           0
     16057 MEMB     130      DOPC     C14      CTL5    -0.350000       12.0110           0
     16058 MEMB     130      DOPC     H14A     HL       0.250000       1.00800           0
     16059 MEMB     130      DOPC     H14B     HL       0.250000       1.00800           0
     16060 MEMB     130      DOPC     H14C     HL       0.250000       1.00800           0
     16061 MEMB     130      DOPC     C15      CTL5    -0.350000       12.0110           0
     16062 MEMB     130      DOPC     H15A     HL       0.250000       1.00800           0
     16063 MEMB     130      DOPC     H15B     HL       0.250000       1.00800           0
     16064 MEMB     130      DOPC     H15C     HL       0.250000       1.00800           0
     16065 MEMB     130      DOPC     C11      CTL2    -0.800000E-01   12.0110           0
     16066 MEMB     130      DOPC     H11A     HAL2     0.900000E-01   1.00800           0
     16067 MEMB     130      DOPC     H11B     HAL2     0.900000E-01   1.00800           0
     16068 MEMB     130      DOPC     P        PL        1.50000       30.9740           0
     16069 MEMB     130      DOPC     O13      O2L     -0.780000       15.9994           0
     16070 MEMB     130      DOPC     O14      O2L     -0.780000       15.9994           0
     16071 MEMB     130      DOPC     O12      OSLP    -0.570000       15.9994           0
     16072 MEMB     130      DOPC     O11      OSLP    -0.570000       15.9994           0
     16073 MEMB     130      DOPC     C1       CTL2    -0.800000E-01   12.0110           0
     16074 MEMB     130      DOPC     HA       HAL2     0.900000E-01   1.00800           0
     16075 MEMB     130      DOPC     HB       HAL2     0.900000E-01   1.00800           0
     16076 MEMB     130      DOPC     C2       CTL1     0.170000       12.0110           0
     16077 MEMB     130      DOPC     HS       HAL1     0.900000E-01   1.00800           0
     16078 MEMB     130      DOPC     O21      OSL     -0.490000       15.9994           0
     16079 MEMB     130      DOPC     C21      CL       0.900000       12.0110           0
     16080 MEMB     130      DOPC     O22      OBL     -0.630000       15.9994           0
     16081 MEMB     130      DOPC     C22      CTL2    -0.220000       12.0110           0
     16082 MEMB     130      DOPC     H2R      HAL2     0.900000E-01   1.00800           0
     16083 MEMB     130      DOPC     H2S      HAL2     0.900000E-01   1.00800           0
     16084 MEMB     130      DOPC     C3       CTL2     0.800000E-01   12.0110           0
     16085 MEMB     130      DOPC     HX       HAL2     0.900000E-01   1.00800           0
     16086 MEMB     130      DOPC     HY       HAL2     0.900000E-01   1.00800           0
     16087 MEMB     130      DOPC     O31      OSL     -0.490000       15.9994           0
     16088 MEMB     130      DOPC     C31      CL       0.900000       12.0110           0
     16089 MEMB     130      DOPC     O32      OBL     -0.630000       15.9994           0
     16090 MEMB     130      DOPC     C32      CTL2    -0.220000       12.0110           0
     16091 MEMB     130      DOPC     H2X      HAL2     0.900000E-01   1.00800           0
     16092 MEMB     130      DOPC     H2Y      HAL2     0.900000E-01   1.00800           0
     16093 MEMB     130      DOPC     C23      CTL2    -0.180000       12.0110           0
     16094 MEMB     130      DOPC     H3R      HAL2     0.900000E-01   1.00800           0
     16095 MEMB     130      DOPC     H3S      HAL2     0.900000E-01   1.00800           0
     16096 MEMB     130      DOPC     C24      CTL2    -0.180000       12.0110           0
     16097 MEMB     130      DOPC     H4R      HAL2     0.900000E-01   1.00800           0
     16098 MEMB     130      DOPC     H4S      HAL2     0.900000E-01   1.00800           0
     16099 MEMB     130      DOPC     C25      CTL2    -0.180000       12.0110           0
     16100 MEMB     130      DOPC     H5R      HAL2     0.900000E-01   1.00800           0
     16101 MEMB     130      DOPC     H5S      HAL2     0.900000E-01   1.00800           0
     16102 MEMB     130      DOPC     C26      CTL2    -0.180000       12.0110           0
     16103 MEMB     130      DOPC     H6R      HAL2     0.900000E-01   1.00800           0
     16104 MEMB     130      DOPC     H6S      HAL2     0.900000E-01   1.00800           0
     16105 MEMB     130      DOPC     C27      CTL2    -0.180000       12.0110           0
     16106 MEMB     130      DOPC     H7R      HAL2     0.900000E-01   1.00800           0
     16107 MEMB     130      DOPC     H7S      HAL2     0.900000E-01   1.00800           0
     16108 MEMB     130      DOPC     C28      CTL2    -0.180000       12.0110           0
     16109 MEMB     130      DOPC     H8R      HAL2     0.900000E-01   1.00800           0
     16110 MEMB     130      DOPC     H8S      HAL2     0.900000E-01   1.00800           0
     16111 MEMB     130      DOPC     C29      CEL1    -0.150000       12.0110           0
     16112 MEMB     130      DOPC     H9R      HEL1     0.150000       1.00800           0
     16113 MEMB     130      DOPC     C210     CEL1    -0.150000       12.0110           0
     16114 MEMB     130      DOPC     H10R     HEL1     0.150000       1.00800           0
     16115 MEMB     130      DOPC     C211     CTL2    -0.180000       12.0110           0
     16116 MEMB     130      DOPC     H11R     HAL2     0.900000E-01   1.00800           0
     16117 MEMB     130      DOPC     H11S     HAL2     0.900000E-01   1.00800           0
     16118 MEMB     130      DOPC     C212     CTL2    -0.180000       12.0110           0
     16119 MEMB     130      DOPC     H12R     HAL2     0.900000E-01   1.00800           0
     16120 MEMB     130      DOPC     H12S     HAL2     0.900000E-01   1.00800           0
     16121 MEMB     130      DOPC     C213     CTL2    -0.180000       12.0110           0
     16122 MEMB     130      DOPC     H13R     HAL2     0.900000E-01   1.00800           0
     16123 MEMB     130      DOPC     H13S     HAL2     0.900000E-01   1.00800           0
     16124 MEMB     130      DOPC     C214     CTL2    -0.180000       12.0110           0
     16125 MEMB     130      DOPC     H14R     HAL2     0.900000E-01   1.00800           0
     16126 MEMB     130      DOPC     H14S     HAL2     0.900000E-01   1.00800           0
     16127 MEMB     130      DOPC     C215     CTL2    -0.180000       12.0110           0
     16128 MEMB     130      DOPC     H15R     HAL2     0.900000E-01   1.00800           0
     16129 MEMB     130      DOPC     H15S     HAL2     0.900000E-01   1.00800           0
     16130 MEMB     130      DOPC     C216     CTL2    -0.180000       12.0110           0
     16131 MEMB     130      DOPC     H16R     HAL2     0.900000E-01   1.00800           0
     16132 MEMB     130      DOPC     H16S     HAL2     0.900000E-01   1.00800           0
     16133 MEMB     130      DOPC     C217     CTL2    -0.180000       12.0110           0
     16134 MEMB     130      DOPC     H17R     HAL2     0.900000E-01   1.00800           0
     16135 MEMB     130      DOPC     H17S     HAL2     0.900000E-01   1.00800           0
     16136 MEMB     130      DOPC     C218     CTL3    -0.270000       12.0110           0
     16137 MEMB     130      DOPC     H18R     HAL3     0.900000E-01   1.00800           0
     16138 MEMB     130      DOPC     H18S     HAL3     0.900000E-01   1.00800           0
     16139 MEMB     130      DOPC     H18T     HAL3     0.900000E-01   1.00800           0
     16140 MEMB     130      DOPC     C33      CTL2    -0.180000       12.0110           0
     16141 MEMB     130      DOPC     H3X      HAL2     0.900000E-01   1.00800           0
     16142 MEMB     130      DOPC     H3Y      HAL2     0.900000E-01   1.00800           0
     16143 MEMB     130      DOPC     C34      CTL2    -0.180000       12.0110           0
     16144 MEMB     130      DOPC     H4X      HAL2     0.900000E-01   1.00800           0
     16145 MEMB     130      DOPC     H4Y      HAL2     0.900000E-01   1.00800           0
     16146 MEMB     130      DOPC     C35      CTL2    -0.180000       12.0110           0
     16147 MEMB     130      DOPC     H5X      HAL2     0.900000E-01   1.00800           0
     16148 MEMB     130      DOPC     H5Y      HAL2     0.900000E-01   1.00800           0
     16149 MEMB     130      DOPC     C36      CTL2    -0.180000       12.0110           0
     16150 MEMB     130      DOPC     H6X      HAL2     0.900000E-01   1.00800           0
     16151 MEMB     130      DOPC     H6Y      HAL2     0.900000E-01   1.00800           0
     16152 MEMB     130      DOPC     C37      CTL2    -0.180000       12.0110           0
     16153 MEMB     130      DOPC     H7X      HAL2     0.900000E-01   1.00800           0
     16154 MEMB     130      DOPC     H7Y      HAL2     0.900000E-01   1.00800           0
     16155 MEMB     130      DOPC     C38      CTL2    -0.180000       12.0110           0
     16156 MEMB     130      DOPC     H8X      HAL2     0.900000E-01   1.00800           0
     16157 MEMB     130      DOPC     H8Y      HAL2     0.900000E-01   1.00800           0
     16158 MEMB     130      DOPC     C39      CEL1    -0.150000       12.0110           0
     16159 MEMB     130      DOPC     H9X      HEL1     0.150000       1.00800           0
     16160 MEMB     130      DOPC     C310     CEL1    -0.150000       12.0110           0
     16161 MEMB     130      DOPC     H10X     HEL1     0.150000       1.00800           0
     16162 MEMB     130      DOPC     C311     CTL2    -0.180000       12.0110           0
     16163 MEMB     130      DOPC     H11X     HAL2     0.900000E-01   1.00800           0
     16164 MEMB     130      DOPC     H11Y     HAL2     0.900000E-01   1.00800           0
     16165 MEMB     130      DOPC     C312     CTL2    -0.180000       12.0110           0
     16166 MEMB     130      DOPC     H12X     HAL2     0.900000E-01   1.00800           0
     16167 MEMB     130      DOPC     H12Y     HAL2     0.900000E-01   1.00800           0
     16168 MEMB     130      DOPC     C313     CTL2    -0.180000       12.0110           0
     16169 MEMB     130      DOPC     H13X     HAL2     0.900000E-01   1.00800           0
     16170 MEMB     130      DOPC     H13Y     HAL2     0.900000E-01   1.00800           0
     16171 MEMB     130      DOPC     C314     CTL2    -0.180000       12.0110           0
     16172 MEMB     130      DOPC     H14X     HAL2     0.900000E-01   1.00800           0
     16173 MEMB     130      DOPC     H14Y     HAL2     0.900000E-01   1.00800           0
     16174 MEMB     130      DOPC     C315     CTL2    -0.180000       12.0110           0
     16175 MEMB     130      DOPC     H15X     HAL2     0.900000E-01   1.00800           0
     16176 MEMB     130      DOPC     H15Y     HAL2     0.900000E-01   1.00800           0
     16177 MEMB     130      DOPC     C316     CTL2    -0.180000       12.0110           0
     16178 MEMB     130      DOPC     H16X     HAL2     0.900000E-01   1.00800           0
     16179 MEMB     130      DOPC     H16Y     HAL2     0.900000E-01   1.00800           0
     16180 MEMB     130      DOPC     C317     CTL2    -0.180000       12.0110           0
     16181 MEMB     130      DOPC     H17X     HAL2     0.900000E-01   1.00800           0
     16182 MEMB     130      DOPC     H17Y     HAL2     0.900000E-01   1.00800           0
     16183 MEMB     130      DOPC     C318     CTL3    -0.270000       12.0110           0
     16184 MEMB     130      DOPC     H18X     HAL3     0.900000E-01   1.00800           0
     16185 MEMB     130      DOPC     H18Y     HAL3     0.900000E-01   1.00800           0
     16186 MEMB     130      DOPC     H18Z     HAL3     0.900000E-01   1.00800           0
     16187 MEMB     131      DOPE     N        NH3L    -0.300000       14.0070           0
     16188 MEMB     131      DOPE     HN1      HCL      0.330000       1.00800           0
     16189 MEMB     131      DOPE     HN2      HCL      0.330000       1.00800           0
     16190 MEMB     131      DOPE     HN3      HCL      0.330000       1.00800           0
     16191 MEMB     131      DOPE     C12      CTL2     0.130000       12.0110           0
     16192 MEMB     131      DOPE     H12A     HAL2     0.900000E-01   1.00800           0
     16193 MEMB     131      DOPE     H12B     HAL2     0.900000E-01   1.00800           0
     16194 MEMB     131      DOPE     C11      CTL2    -0.800000E-01   12.0110           0
     16195 MEMB     131      DOPE     H11A     HAL2     0.900000E-01   1.00800           0
     16196 MEMB     131      DOPE     H11B     HAL2     0.900000E-01   1.00800           0
     16197 MEMB     131      DOPE     P        PL        1.50000       30.9740           0
     16198 MEMB     131      DOPE     O13      O2L     -0.780000       15.9994           0
     16199 MEMB     131      DOPE     O14      O2L     -0.780000       15.9994           0
     16200 MEMB     131      DOPE     O11      OSLP    -0.570000       15.9994           0
     16201 MEMB     131      DOPE     O12      OSLP    -0.570000       15.9994           0
     16202 MEMB     131      DOPE     C1       CTL2    -0.800000E-01   12.0110           0
     16203 MEMB     131      DOPE     HA       HAL2     0.900000E-01   1.00800           0
     16204 MEMB     131      DOPE     HB       HAL2     0.900000E-01   1.00800           0
     16205 MEMB     131      DOPE     C2       CTL1     0.170000       12.0110           0
     16206 MEMB     131      DOPE     HS       HAL1     0.900000E-01   1.00800           0
     16207 MEMB     131      DOPE     O21      OSL     -0.490000       15.9994           0
     16208 MEMB     131      DOPE     C21      CL       0.900000       12.0110           0
     16209 MEMB     131      DOPE     O22      OBL     -0.630000       15.9994           0
     16210 MEMB     131      DOPE     C22      CTL2    -0.220000       12.0110           0
     16211 MEMB     131      DOPE     H2R      HAL2     0.900000E-01   1.00800           0
     16212 MEMB     131      DOPE     H2S      HAL2     0.900000E-01   1.00800           0
     16213 MEMB     131      DOPE     C3       CTL2     0.800000E-01   12.0110           0
     16214 MEMB     131      DOPE     HX       HAL2     0.900000E-01   1.00800           0
     16215 MEMB     131      DOPE     HY       HAL2     0.900000E-01   1.00800           0
     16216 MEMB     131      DOPE     O31      OSL     -0.490000       15.9994           0
     16217 MEMB     131      DOPE     C31      CL       0.900000       12.0110           0
     16218 MEMB     131      DOPE     O32      OBL     -0.630000       15.9994           0
     16219 MEMB     131      DOPE     C32      CTL2    -0.220000       12.0110           0
     16220 MEMB     131      DOPE     H2X      HAL2     0.900000E-01   1.00800           0
     16221 MEMB     131      DOPE     H2Y      HAL2     0.900000E-01   1.00800           0
     16222 MEMB     131      DOPE     C23      CTL2    -0.180000       12.0110           0
     16223 MEMB     131      DOPE     H3R      HAL2     0.900000E-01   1.00800           0
     16224 MEMB     131      DOPE     H3S      HAL2     0.900000E-01   1.00800           0
     16225 MEMB     131      DOPE     C24      CTL2    -0.180000       12.0110           0
     16226 MEMB     131      DOPE     H4R      HAL2     0.900000E-01   1.00800           0
     16227 MEMB     131      DOPE     H4S      HAL2     0.900000E-01   1.00800           0
     16228 MEMB     131      DOPE     C25      CTL2    -0.180000       12.0110           0
     16229 MEMB     131      DOPE     H5R      HAL2     0.900000E-01   1.00800           0
     16230 MEMB     131      DOPE     H5S      HAL2     0.900000E-01   1.00800           0
     16231 MEMB     131      DOPE     C26      CTL2    -0.180000       12.0110           0
     16232 MEMB     131      DOPE     H6R      HAL2     0.900000E-01   1.00800           0
     16233 MEMB     131      DOPE     H6S      HAL2     0.900000E-01   1.00800           0
     16234 MEMB     131      DOPE     C27      CTL2    -0.180000       12.0110           0
     16235 MEMB     131      DOPE     H7R      HAL2     0.900000E-01   1.00800           0
     16236 MEMB     131      DOPE     H7S      HAL2     0.900000E-01   1.00800           0
     16237 MEMB     131      DOPE     C28      CTL2    -0.180000       12.0110           0
     16238 MEMB     131      DOPE     H8R      HAL2     0.900000E-01   1.00800           0
     16239 MEMB     131      DOPE     H8S      HAL2     0.900000E-01   1.00800           0
     16240 MEMB     131      DOPE     C29      CEL1    -0.150000       12.0110           0
     16241 MEMB     131      DOPE     H9R      HEL1     0.150000       1.00800           0
     16242 MEMB     131      DOPE     C210     CEL1    -0.150000       12.0110           0
     16243 MEMB     131      DOPE     H10R     HEL1     0.150000       1.00800           0
     16244 MEMB     131      DOPE     C211     CTL2    -0.180000       12.0110           0
     16245 MEMB     131      DOPE     H11R     HAL2     0.900000E-01   1.00800           0
     16246 MEMB     131      DOPE     H11S     HAL2     0.900000E-01   1.00800           0
     16247 MEMB     131      DOPE     C212     CTL2    -0.180000       12.0110           0
     16248 MEMB     131      DOPE     H12R     HAL2     0.900000E-01   1.00800           0
     16249 MEMB     131      DOPE     H12S     HAL2     0.900000E-01   1.00800           0
     16250 MEMB     131      DOPE     C213     CTL2    -0.180000       12.0110           0
     16251 MEMB     131      DOPE     H13R     HAL2     0.900000E-01   1.00800           0
     16252 MEMB     131      DOPE     H13S     HAL2     0.900000E-01   1.00800           0
     16253 MEMB     131      DOPE     C214     CTL2    -0.180000       12.0110           0
     16254 MEMB     131      DOPE     H14R     HAL2     0.900000E-01   1.00800           0
     16255 MEMB     131      DOPE     H14S     HAL2     0.900000E-01   1.00800           0
     16256 MEMB     131      DOPE     C215     CTL2    -0.180000       12.0110           0
     16257 MEMB     131      DOPE     H15R     HAL2     0.900000E-01   1.00800           0
     16258 MEMB     131      DOPE     H15S     HAL2     0.900000E-01   1.00800           0
     16259 MEMB     131      DOPE     C216     CTL2    -0.180000       12.0110           0
     16260 MEMB     131      DOPE     H16R     HAL2     0.900000E-01   1.00800           0
     16261 MEMB     131      DOPE     H16S     HAL2     0.900000E-01   1.00800           0
     16262 MEMB     131      DOPE     C217     CTL2    -0.180000       12.0110           0
     16263 MEMB     131      DOPE     H17R     HAL2     0.900000E-01   1.00800           0
     16264 MEMB     131      DOPE     H17S     HAL2     0.900000E-01   1.00800           0
     16265 MEMB     131      DOPE     C218     CTL3    -0.270000       12.0110           0
     16266 MEMB     131      DOPE     H18R     HAL3     0.900000E-01   1.00800           0
     16267 MEMB     131      DOPE     H18S     HAL3     0.900000E-01   1.00800           0
     16268 MEMB     131      DOPE     H18T     HAL3     0.900000E-01   1.00800           0
     16269 MEMB     131      DOPE     C33      CTL2    -0.180000       12.0110           0
     16270 MEMB     131      DOPE     H3X      HAL2     0.900000E-01   1.00800           0
     16271 MEMB     131      DOPE     H3Y      HAL2     0.900000E-01   1.00800           0
     16272 MEMB     131      DOPE     C34      CTL2    -0.180000       12.0110           0
     16273 MEMB     131      DOPE     H4X      HAL2     0.900000E-01   1.00800           0
     16274 MEMB     131      DOPE     H4Y      HAL2     0.900000E-01   1.00800           0
     16275 MEMB     131      DOPE     C35      CTL2    -0.180000       12.0110           0
     16276 MEMB     131      DOPE     H5X      HAL2     0.900000E-01   1.00800           0
     16277 MEMB     131      DOPE     H5Y      HAL2     0.900000E-01   1.00800           0
     16278 MEMB     131      DOPE     C36      CTL2    -0.180000       12.0110           0
     16279 MEMB     131      DOPE     H6X      HAL2     0.900000E-01   1.00800           0
     16280 MEMB     131      DOPE     H6Y      HAL2     0.900000E-01   1.00800           0
     16281 MEMB     131      DOPE     C37      CTL2    -0.180000       12.0110           0
     16282 MEMB     131      DOPE     H7X      HAL2     0.900000E-01   1.00800           0
     16283 MEMB     131      DOPE     H7Y      HAL2     0.900000E-01   1.00800           0
     16284 MEMB     131      DOPE     C38      CTL2    -0.180000       12.0110           0
     16285 MEMB     131      DOPE     H8X      HAL2     0.900000E-01   1.00800           0
     16286 MEMB     131      DOPE     H8Y      HAL2     0.900000E-01   1.00800           0
     16287 MEMB     131      DOPE     C39      CEL1    -0.150000       12.0110           0
     16288 MEMB     131      DOPE     H9X      HEL1     0.150000       1.00800           0
     16289 MEMB     131      DOPE     C310     CEL1    -0.150000       12.0110           0
     16290 MEMB     131      DOPE     H10X     HEL1     0.150000       1.00800           0
     16291 MEMB     131      DOPE     C311     CTL2    -0.180000       12.0110           0
     16292 MEMB     131      DOPE     H11X     HAL2     0.900000E-01   1.00800           0
     16293 MEMB     131      DOPE     H11Y     HAL2     0.900000E-01   1.00800           0
     16294 MEMB     131      DOPE     C312     CTL2    -0.180000       12.0110           0
     16295 MEMB     131      DOPE     H12X     HAL2     0.900000E-01   1.00800           0
     16296 MEMB     131      DOPE     H12Y     HAL2     0.900000E-01   1.00800           0
     16297 MEMB     131      DOPE     C313     CTL2    -0.180000       12.0110           0
     16298 MEMB     131      DOPE     H13X     HAL2     0.900000E-01   1.00800           0
     16299 MEMB     131      DOPE     H13Y     HAL2     0.900000E-01   1.00800           0
     16300 MEMB     131      DOPE     C314     CTL2    -0.180000       12.0110           0
     16301 MEMB     131      DOPE     H14X     HAL2     0.900000E-01   1.00800           0
     16302 MEMB     131      DOPE     H14Y     HAL2     0.900000E-01   1.00800           0
     16303 MEMB     131      DOPE     C315     CTL2    -0.180000       12.0110           0
     16304 MEMB     131      DOPE     H15X     HAL2     0.900000E-01   1.00800           0
     16305 MEMB     131      DOPE     H15Y     HAL2     0.900000E-01   1.00800           0
     16306 MEMB     131      DOPE     C316     CTL2    -0.180000       12.0110           0
     16307 MEMB     131      DOPE     H16X     HAL2     0.900000E-01   1.00800           0
     16308 MEMB     131      DOPE     H16Y     HAL2     0.900000E-01   1.00800           0
     16309 MEMB     131      DOPE     C317     CTL2    -0.180000       12.0110           0
     16310 MEMB     131      DOPE     H17X     HAL2     0.900000E-01   1.00800           0
     16311 MEMB     131      DOPE     H17Y     HAL2     0.900000E-01   1.00800           0
     16312 MEMB     131      DOPE     C318     CTL3    -0.270000       12.0110           0
     16313 MEMB     131      DOPE     H18X     HAL3     0.900000E-01   1.00800           0
     16314 MEMB     131      DOPE     H18Y     HAL3     0.900000E-01   1.00800           0
     16315 MEMB     131      DOPE     H18Z     HAL3     0.900000E-01   1.00800           0
     16316 MEMB     132      23SM     N        NTL     -0.600000       14.0070           0
     16317 MEMB     132      23SM     C15      CTL5    -0.350000       12.0110           0
     16318 MEMB     132      23SM     H15A     HL       0.250000       1.00800           0
     16319 MEMB     132      23SM     H15B     HL       0.250000       1.00800           0
     16320 MEMB     132      23SM     H15C     HL       0.250000       1.00800           0
     16321 MEMB     132      23SM     C14      CTL5    -0.350000       12.0110           0
     16322 MEMB     132      23SM     H14A     HL       0.250000       1.00800           0
     16323 MEMB     132      23SM     H14B     HL       0.250000       1.00800           0
     16324 MEMB     132      23SM     H14C     HL       0.250000       1.00800           0
     16325 MEMB     132      23SM     C13      CTL5    -0.350000       12.0110           0
     16326 MEMB     132      23SM     H13A     HL       0.250000       1.00800           0
     16327 MEMB     132      23SM     H13B     HL       0.250000       1.00800           0
     16328 MEMB     132      23SM     H13C     HL       0.250000       1.00800           0
     16329 MEMB     132      23SM     C12      CTL2    -0.100000       12.0110           0
     16330 MEMB     132      23SM     H12A     HL       0.250000       1.00800           0
     16331 MEMB     132      23SM     H12B     HL       0.250000       1.00800           0
     16332 MEMB     132      23SM     C11      CTL2    -0.800000E-01   12.0110           0
     16333 MEMB     132      23SM     H11A     HAL2     0.900000E-01   1.00800           0
     16334 MEMB     132      23SM     H11B     HAL2     0.900000E-01   1.00800           0
     16335 MEMB     132      23SM     P        PL        1.50000       30.9740           0
     16336 MEMB     132      23SM     O13      O2L     -0.780000       15.9994           0
     16337 MEMB     132      23SM     O14      O2L     -0.780000       15.9994           0
     16338 MEMB     132      23SM     O11      OSLP    -0.570000       15.9994           0
     16339 MEMB     132      23SM     O12      OSLP    -0.570000       15.9994           0
     16340 MEMB     132      23SM     C1S      CTL2    -0.800000E-01   12.0110           0
     16341 MEMB     132      23SM     H1S      HAL2     0.900000E-01   1.00800           0
     16342 MEMB     132      23SM     H1T      HAL2     0.900000E-01   1.00800           0
     16343 MEMB     132      23SM     NF       NHL     -0.700000       14.0070           0
     16344 MEMB     132      23SM     HNF      H        0.350000       1.00800           0
     16345 MEMB     132      23SM     C2S      CTL1     0.300000       12.0110           0
     16346 MEMB     132      23SM     H2S      HAL1     0.500000E-01   1.00800           0
     16347 MEMB     132      23SM     C3S      CTO1     0.500000       12.0110           0
     16348 MEMB     132      23SM     H3S      HAL1    -0.110000       1.00800           0
     16349 MEMB     132      23SM     O3       OHL     -0.690000       15.9994           0
     16350 MEMB     132      23SM     HO3      HOL      0.300000       1.00800           0
     16351 MEMB     132      23SM     C4S      CEL3    -0.150000       12.0110           0
     16352 MEMB     132      23SM     H4S      HEL1     0.150000       1.00800           0
     16353 MEMB     132      23SM     C5S      CEL3    -0.150000       12.0110           0
     16354 MEMB     132      23SM     H5S      HEL1     0.150000       1.00800           0
     16355 MEMB     132      23SM     C6S      CTL2    -0.180000       12.0110           0
     16356 MEMB     132      23SM     H6S      HAL2     0.900000E-01   1.00800           0
     16357 MEMB     132      23SM     H6T      HAL2     0.900000E-01   1.00800           0
     16358 MEMB     132      23SM     C7S      CTL2    -0.180000       12.0110           0
     16359 MEMB     132      23SM     H7S      HAL2     0.900000E-01   1.00800           0
     16360 MEMB     132      23SM     H7T      HAL2     0.900000E-01   1.00800           0
     16361 MEMB     132      23SM     C8S      CTL2    -0.180000       12.0110           0
     16362 MEMB     132      23SM     H8S      HAL2     0.900000E-01   1.00800           0
     16363 MEMB     132      23SM     H8T      HAL2     0.900000E-01   1.00800           0
     16364 MEMB     132      23SM     C9S      CTL2    -0.180000       12.0110           0
     16365 MEMB     132      23SM     H9S      HAL2     0.900000E-01   1.00800           0
     16366 MEMB     132      23SM     H9T      HAL2     0.900000E-01   1.00800           0
     16367 MEMB     132      23SM     C10S     CTL2    -0.180000       12.0110           0
     16368 MEMB     132      23SM     H10S     HAL2     0.900000E-01   1.00800           0
     16369 MEMB     132      23SM     H10T     HAL2     0.900000E-01   1.00800           0
     16370 MEMB     132      23SM     C11S     CTL2    -0.180000       12.0110           0
     16371 MEMB     132      23SM     H11S     HAL2     0.900000E-01   1.00800           0
     16372 MEMB     132      23SM     H11T     HAL2     0.900000E-01   1.00800           0
     16373 MEMB     132      23SM     C12S     CTL2    -0.180000       12.0110           0
     16374 MEMB     132      23SM     H12S     HAL2     0.900000E-01   1.00800           0
     16375 MEMB     132      23SM     H12T     HAL2     0.900000E-01   1.00800           0
     16376 MEMB     132      23SM     C13S     CTL2    -0.180000       12.0110           0
     16377 MEMB     132      23SM     H13S     HAL2     0.900000E-01   1.00800           0
     16378 MEMB     132      23SM     H13T     HAL2     0.900000E-01   1.00800           0
     16379 MEMB     132      23SM     C14S     CTL2    -0.180000       12.0110           0
     16380 MEMB     132      23SM     H14S     HAL2     0.900000E-01   1.00800           0
     16381 MEMB     132      23SM     H14T     HAL2     0.900000E-01   1.00800           0
     16382 MEMB     132      23SM     C15S     CTL2    -0.180000       12.0110           0
     16383 MEMB     132      23SM     H15S     HAL2     0.900000E-01   1.00800           0
     16384 MEMB     132      23SM     H15T     HAL2     0.900000E-01   1.00800           0
     16385 MEMB     132      23SM     C16S     CTL2    -0.180000       12.0110           0
     16386 MEMB     132      23SM     H16S     HAL2     0.900000E-01   1.00800           0
     16387 MEMB     132      23SM     H16T     HAL2     0.900000E-01   1.00800           0
     16388 MEMB     132      23SM     C17S     CTL2    -0.180000       12.0110           0
     16389 MEMB     132      23SM     H17S     HAL2     0.900000E-01   1.00800           0
     16390 MEMB     132      23SM     H17T     HAL2     0.900000E-01   1.00800           0
     16391 MEMB     132      23SM     C18S     CTL3    -0.270000       12.0110           0
     16392 MEMB     132      23SM     H18S     HAL3     0.900000E-01   1.00800           0
     16393 MEMB     132      23SM     H18T     HAL3     0.900000E-01   1.00800           0
     16394 MEMB     132      23SM     H18U     HAL3     0.900000E-01   1.00800           0
     16395 MEMB     132      23SM     C1F      C        0.550000       12.0110           0
     16396 MEMB     132      23SM     OF       O       -0.600000       15.9994           0
     16397 MEMB     132      23SM     C2F      CTL2    -0.700000E-01   12.0110           0
     16398 MEMB     132      23SM     H2F      HAL2     0.600000E-01   1.00800           0
     16399 MEMB     132      23SM     H2G      HAL2     0.600000E-01   1.00800           0
     16400 MEMB     132      23SM     C3F      CTL2    -0.180000       12.0110           0
     16401 MEMB     132      23SM     H3F      HAL2     0.900000E-01   1.00800           0
     16402 MEMB     132      23SM     H3G      HAL2     0.900000E-01   1.00800           0
     16403 MEMB     132      23SM     C4F      CTL2    -0.180000       12.0110           0
     16404 MEMB     132      23SM     H4F      HAL2     0.900000E-01   1.00800           0
     16405 MEMB     132      23SM     H4G      HAL2     0.900000E-01   1.00800           0
     16406 MEMB     132      23SM     C5F      CTL2    -0.180000       12.0110           0
     16407 MEMB     132      23SM     H5F      HAL2     0.900000E-01   1.00800           0
     16408 MEMB     132      23SM     H5G      HAL2     0.900000E-01   1.00800           0
     16409 MEMB     132      23SM     C6F      CTL2    -0.180000       12.0110           0
     16410 MEMB     132      23SM     H6F      HAL2     0.900000E-01   1.00800           0
     16411 MEMB     132      23SM     H6G      HAL2     0.900000E-01   1.00800           0
     16412 MEMB     132      23SM     C7F      CTL2    -0.180000       12.0110           0
     16413 MEMB     132      23SM     H7F      HAL2     0.900000E-01   1.00800           0
     16414 MEMB     132      23SM     H7G      HAL2     0.900000E-01   1.00800           0
     16415 MEMB     132      23SM     C8F      CTL2    -0.180000       12.0110           0
     16416 MEMB     132      23SM     H8F      HAL2     0.900000E-01   1.00800           0
     16417 MEMB     132      23SM     H8G      HAL2     0.900000E-01   1.00800           0
     16418 MEMB     132      23SM     C9F      CTL2    -0.180000       12.0110           0
     16419 MEMB     132      23SM     H9F      HAL2     0.900000E-01   1.00800           0
     16420 MEMB     132      23SM     H9G      HAL2     0.900000E-01   1.00800           0
     16421 MEMB     132      23SM     C10F     CTL2    -0.180000       12.0110           0
     16422 MEMB     132      23SM     H10F     HAL2     0.900000E-01   1.00800           0
     16423 MEMB     132      23SM     H10G     HAL2     0.900000E-01   1.00800           0
     16424 MEMB     132      23SM     C11F     CTL2    -0.180000       12.0110           0
     16425 MEMB     132      23SM     H11F     HAL2     0.900000E-01   1.00800           0
     16426 MEMB     132      23SM     H11G     HAL2     0.900000E-01   1.00800           0
     16427 MEMB     132      23SM     C12F     CTL2    -0.180000       12.0110           0
     16428 MEMB     132      23SM     H12F     HAL2     0.900000E-01   1.00800           0
     16429 MEMB     132      23SM     H12G     HAL2     0.900000E-01   1.00800           0
     16430 MEMB     132      23SM     C13F     CTL2    -0.180000       12.0110           0
     16431 MEMB     132      23SM     H13F     HAL2     0.900000E-01   1.00800           0
     16432 MEMB     132      23SM     H13G     HAL2     0.900000E-01   1.00800           0
     16433 MEMB     132      23SM     C14F     CTL2    -0.180000       12.0110           0
     16434 MEMB     132      23SM     H14F     HAL2     0.900000E-01   1.00800           0
     16435 MEMB     132      23SM     H14G     HAL2     0.900000E-01   1.00800           0
     16436 MEMB     132      23SM     C15F     CTL2    -0.180000       12.0110           0
     16437 MEMB     132      23SM     H15F     HAL2     0.900000E-01   1.00800           0
     16438 MEMB     132      23SM     H15G     HAL2     0.900000E-01   1.00800           0
     16439 MEMB     132      23SM     C16F     CTL2    -0.180000       12.0110           0
     16440 MEMB     132      23SM     H16F     HAL2     0.900000E-01   1.00800           0
     16441 MEMB     132      23SM     H16G     HAL2     0.900000E-01   1.00800           0
     16442 MEMB     132      23SM     C17F     CTL2    -0.180000       12.0110           0
     16443 MEMB     132      23SM     H17F     HAL2     0.900000E-01   1.00800           0
     16444 MEMB     132      23SM     H17G     HAL2     0.900000E-01   1.00800           0
     16445 MEMB     132      23SM     C18F     CTL2    -0.180000       12.0110           0
     16446 MEMB     132      23SM     H18F     HAL2     0.900000E-01   1.00800           0
     16447 MEMB     132      23SM     H18G     HAL2     0.900000E-01   1.00800           0
     16448 MEMB     132      23SM     C19F     CTL2    -0.180000       12.0110           0
     16449 MEMB     132      23SM     H19F     HAL2     0.900000E-01   1.00800           0
     16450 MEMB     132      23SM     H19G     HAL2     0.900000E-01   1.00800           0
     16451 MEMB     132      23SM     C20F     CTL2    -0.180000       12.0110           0
     16452 MEMB     132      23SM     H20F     HAL2     0.900000E-01   1.00800           0
     16453 MEMB     132      23SM     H20G     HAL2     0.900000E-01   1.00800           0
     16454 MEMB     132      23SM     C21F     CTL2    -0.180000       12.0110           0
     16455 MEMB     132      23SM     H21F     HAL2     0.900000E-01   1.00800           0
     16456 MEMB     132      23SM     H21G     HAL2     0.900000E-01   1.00800           0
     16457 MEMB     132      23SM     C22F     CTL2    -0.180000       12.0110           0
     16458 MEMB     132      23SM     H22F     HAL2     0.900000E-01   1.00800           0
     16459 MEMB     132      23SM     H22G     HAL2     0.900000E-01   1.00800           0
     16460 MEMB     132      23SM     C23F     CTL3    -0.270000       12.0110           0
     16461 MEMB     132      23SM     H23F     HAL3     0.900000E-01   1.00800           0
     16462 MEMB     132      23SM     H23G     HAL3     0.900000E-01   1.00800           0
     16463 MEMB     132      23SM     H23H     HAL3     0.900000E-01   1.00800           0
     16464 MEMB     133      DOPE     N        NH3L    -0.300000       14.0070           0
     16465 MEMB     133      DOPE     HN1      HCL      0.330000       1.00800           0
     16466 MEMB     133      DOPE     HN2      HCL      0.330000       1.00800           0
     16467 MEMB     133      DOPE     HN3      HCL      0.330000       1.00800           0
     16468 MEMB     133      DOPE     C12      CTL2     0.130000       12.0110           0
     16469 MEMB     133      DOPE     H12A     HAL2     0.900000E-01   1.00800           0
     16470 MEMB     133      DOPE     H12B     HAL2     0.900000E-01   1.00800           0
     16471 MEMB     133      DOPE     C11      CTL2    -0.800000E-01   12.0110           0
     16472 MEMB     133      DOPE     H11A     HAL2     0.900000E-01   1.00800           0
     16473 MEMB     133      DOPE     H11B     HAL2     0.900000E-01   1.00800           0
     16474 MEMB     133      DOPE     P        PL        1.50000       30.9740           0
     16475 MEMB     133      DOPE     O13      O2L     -0.780000       15.9994           0
     16476 MEMB     133      DOPE     O14      O2L     -0.780000       15.9994           0
     16477 MEMB     133      DOPE     O11      OSLP    -0.570000       15.9994           0
     16478 MEMB     133      DOPE     O12      OSLP    -0.570000       15.9994           0
     16479 MEMB     133      DOPE     C1       CTL2    -0.800000E-01   12.0110           0
     16480 MEMB     133      DOPE     HA       HAL2     0.900000E-01   1.00800           0
     16481 MEMB     133      DOPE     HB       HAL2     0.900000E-01   1.00800           0
     16482 MEMB     133      DOPE     C2       CTL1     0.170000       12.0110           0
     16483 MEMB     133      DOPE     HS       HAL1     0.900000E-01   1.00800           0
     16484 MEMB     133      DOPE     O21      OSL     -0.490000       15.9994           0
     16485 MEMB     133      DOPE     C21      CL       0.900000       12.0110           0
     16486 MEMB     133      DOPE     O22      OBL     -0.630000       15.9994           0
     16487 MEMB     133      DOPE     C22      CTL2    -0.220000       12.0110           0
     16488 MEMB     133      DOPE     H2R      HAL2     0.900000E-01   1.00800           0
     16489 MEMB     133      DOPE     H2S      HAL2     0.900000E-01   1.00800           0
     16490 MEMB     133      DOPE     C3       CTL2     0.800000E-01   12.0110           0
     16491 MEMB     133      DOPE     HX       HAL2     0.900000E-01   1.00800           0
     16492 MEMB     133      DOPE     HY       HAL2     0.900000E-01   1.00800           0
     16493 MEMB     133      DOPE     O31      OSL     -0.490000       15.9994           0
     16494 MEMB     133      DOPE     C31      CL       0.900000       12.0110           0
     16495 MEMB     133      DOPE     O32      OBL     -0.630000       15.9994           0
     16496 MEMB     133      DOPE     C32      CTL2    -0.220000       12.0110           0
     16497 MEMB     133      DOPE     H2X      HAL2     0.900000E-01   1.00800           0
     16498 MEMB     133      DOPE     H2Y      HAL2     0.900000E-01   1.00800           0
     16499 MEMB     133      DOPE     C23      CTL2    -0.180000       12.0110           0
     16500 MEMB     133      DOPE     H3R      HAL2     0.900000E-01   1.00800           0
     16501 MEMB     133      DOPE     H3S      HAL2     0.900000E-01   1.00800           0
     16502 MEMB     133      DOPE     C24      CTL2    -0.180000       12.0110           0
     16503 MEMB     133      DOPE     H4R      HAL2     0.900000E-01   1.00800           0
     16504 MEMB     133      DOPE     H4S      HAL2     0.900000E-01   1.00800           0
     16505 MEMB     133      DOPE     C25      CTL2    -0.180000       12.0110           0
     16506 MEMB     133      DOPE     H5R      HAL2     0.900000E-01   1.00800           0
     16507 MEMB     133      DOPE     H5S      HAL2     0.900000E-01   1.00800           0
     16508 MEMB     133      DOPE     C26      CTL2    -0.180000       12.0110           0
     16509 MEMB     133      DOPE     H6R      HAL2     0.900000E-01   1.00800           0
     16510 MEMB     133      DOPE     H6S      HAL2     0.900000E-01   1.00800           0
     16511 MEMB     133      DOPE     C27      CTL2    -0.180000       12.0110           0
     16512 MEMB     133      DOPE     H7R      HAL2     0.900000E-01   1.00800           0
     16513 MEMB     133      DOPE     H7S      HAL2     0.900000E-01   1.00800           0
     16514 MEMB     133      DOPE     C28      CTL2    -0.180000       12.0110           0
     16515 MEMB     133      DOPE     H8R      HAL2     0.900000E-01   1.00800           0
     16516 MEMB     133      DOPE     H8S      HAL2     0.900000E-01   1.00800           0
     16517 MEMB     133      DOPE     C29      CEL1    -0.150000       12.0110           0
     16518 MEMB     133      DOPE     H9R      HEL1     0.150000       1.00800           0
     16519 MEMB     133      DOPE     C210     CEL1    -0.150000       12.0110           0
     16520 MEMB     133      DOPE     H10R     HEL1     0.150000       1.00800           0
     16521 MEMB     133      DOPE     C211     CTL2    -0.180000       12.0110           0
     16522 MEMB     133      DOPE     H11R     HAL2     0.900000E-01   1.00800           0
     16523 MEMB     133      DOPE     H11S     HAL2     0.900000E-01   1.00800           0
     16524 MEMB     133      DOPE     C212     CTL2    -0.180000       12.0110           0
     16525 MEMB     133      DOPE     H12R     HAL2     0.900000E-01   1.00800           0
     16526 MEMB     133      DOPE     H12S     HAL2     0.900000E-01   1.00800           0
     16527 MEMB     133      DOPE     C213     CTL2    -0.180000       12.0110           0
     16528 MEMB     133      DOPE     H13R     HAL2     0.900000E-01   1.00800           0
     16529 MEMB     133      DOPE     H13S     HAL2     0.900000E-01   1.00800           0
     16530 MEMB     133      DOPE     C214     CTL2    -0.180000       12.0110           0
     16531 MEMB     133      DOPE     H14R     HAL2     0.900000E-01   1.00800           0
     16532 MEMB     133      DOPE     H14S     HAL2     0.900000E-01   1.00800           0
     16533 MEMB     133      DOPE     C215     CTL2    -0.180000       12.0110           0
     16534 MEMB     133      DOPE     H15R     HAL2     0.900000E-01   1.00800           0
     16535 MEMB     133      DOPE     H15S     HAL2     0.900000E-01   1.00800           0
     16536 MEMB     133      DOPE     C216     CTL2    -0.180000       12.0110           0
     16537 MEMB     133      DOPE     H16R     HAL2     0.900000E-01   1.00800           0
     16538 MEMB     133      DOPE     H16S     HAL2     0.900000E-01   1.00800           0
     16539 MEMB     133      DOPE     C217     CTL2    -0.180000       12.0110           0
     16540 MEMB     133      DOPE     H17R     HAL2     0.900000E-01   1.00800           0
     16541 MEMB     133      DOPE     H17S     HAL2     0.900000E-01   1.00800           0
     16542 MEMB     133      DOPE     C218     CTL3    -0.270000       12.0110           0
     16543 MEMB     133      DOPE     H18R     HAL3     0.900000E-01   1.00800           0
     16544 MEMB     133      DOPE     H18S     HAL3     0.900000E-01   1.00800           0
     16545 MEMB     133      DOPE     H18T     HAL3     0.900000E-01   1.00800           0
     16546 MEMB     133      DOPE     C33      CTL2    -0.180000       12.0110           0
     16547 MEMB     133      DOPE     H3X      HAL2     0.900000E-01   1.00800           0
     16548 MEMB     133      DOPE     H3Y      HAL2     0.900000E-01   1.00800           0
     16549 MEMB     133      DOPE     C34      CTL2    -0.180000       12.0110           0
     16550 MEMB     133      DOPE     H4X      HAL2     0.900000E-01   1.00800           0
     16551 MEMB     133      DOPE     H4Y      HAL2     0.900000E-01   1.00800           0
     16552 MEMB     133      DOPE     C35      CTL2    -0.180000       12.0110           0
     16553 MEMB     133      DOPE     H5X      HAL2     0.900000E-01   1.00800           0
     16554 MEMB     133      DOPE     H5Y      HAL2     0.900000E-01   1.00800           0
     16555 MEMB     133      DOPE     C36      CTL2    -0.180000       12.0110           0
     16556 MEMB     133      DOPE     H6X      HAL2     0.900000E-01   1.00800           0
     16557 MEMB     133      DOPE     H6Y      HAL2     0.900000E-01   1.00800           0
     16558 MEMB     133      DOPE     C37      CTL2    -0.180000       12.0110           0
     16559 MEMB     133      DOPE     H7X      HAL2     0.900000E-01   1.00800           0
     16560 MEMB     133      DOPE     H7Y      HAL2     0.900000E-01   1.00800           0
     16561 MEMB     133      DOPE     C38      CTL2    -0.180000       12.0110           0
     16562 MEMB     133      DOPE     H8X      HAL2     0.900000E-01   1.00800           0
     16563 MEMB     133      DOPE     H8Y      HAL2     0.900000E-01   1.00800           0
     16564 MEMB     133      DOPE     C39      CEL1    -0.150000       12.0110           0
     16565 MEMB     133      DOPE     H9X      HEL1     0.150000       1.00800           0
     16566 MEMB     133      DOPE     C310     CEL1    -0.150000       12.0110           0
     16567 MEMB     133      DOPE     H10X     HEL1     0.150000       1.00800           0
     16568 MEMB     133      DOPE     C311     CTL2    -0.180000       12.0110           0
     16569 MEMB     133      DOPE     H11X     HAL2     0.900000E-01   1.00800           0
     16570 MEMB     133      DOPE     H11Y     HAL2     0.900000E-01   1.00800           0
     16571 MEMB     133      DOPE     C312     CTL2    -0.180000       12.0110           0
     16572 MEMB     133      DOPE     H12X     HAL2     0.900000E-01   1.00800           0
     16573 MEMB     133      DOPE     H12Y     HAL2     0.900000E-01   1.00800           0
     16574 MEMB     133      DOPE     C313     CTL2    -0.180000       12.0110           0
     16575 MEMB     133      DOPE     H13X     HAL2     0.900000E-01   1.00800           0
     16576 MEMB     133      DOPE     H13Y     HAL2     0.900000E-01   1.00800           0
     16577 MEMB     133      DOPE     C314     CTL2    -0.180000       12.0110           0
     16578 MEMB     133      DOPE     H14X     HAL2     0.900000E-01   1.00800           0
     16579 MEMB     133      DOPE     H14Y     HAL2     0.900000E-01   1.00800           0
     16580 MEMB     133      DOPE     C315     CTL2    -0.180000       12.0110           0
     16581 MEMB     133      DOPE     H15X     HAL2     0.900000E-01   1.00800           0
     16582 MEMB     133      DOPE     H15Y     HAL2     0.900000E-01   1.00800           0
     16583 MEMB     133      DOPE     C316     CTL2    -0.180000       12.0110           0
     16584 MEMB     133      DOPE     H16X     HAL2     0.900000E-01   1.00800           0
     16585 MEMB     133      DOPE     H16Y     HAL2     0.900000E-01   1.00800           0
     16586 MEMB     133      DOPE     C317     CTL2    -0.180000       12.0110           0
     16587 MEMB     133      DOPE     H17X     HAL2     0.900000E-01   1.00800           0
     16588 MEMB     133      DOPE     H17Y     HAL2     0.900000E-01   1.00800           0
     16589 MEMB     133      DOPE     C318     CTL3    -0.270000       12.0110           0
     16590 MEMB     133      DOPE     H18X     HAL3     0.900000E-01   1.00800           0
     16591 MEMB     133      DOPE     H18Y     HAL3     0.900000E-01   1.00800           0
     16592 MEMB     133      DOPE     H18Z     HAL3     0.900000E-01   1.00800           0
     16593 MEMB     134      23SM     N        NTL     -0.600000       14.0070           0
     16594 MEMB     134      23SM     C15      CTL5    -0.350000       12.0110           0
     16595 MEMB     134      23SM     H15A     HL       0.250000       1.00800           0
     16596 MEMB     134      23SM     H15B     HL       0.250000       1.00800           0
     16597 MEMB     134      23SM     H15C     HL       0.250000       1.00800           0
     16598 MEMB     134      23SM     C14      CTL5    -0.350000       12.0110           0
     16599 MEMB     134      23SM     H14A     HL       0.250000       1.00800           0
     16600 MEMB     134      23SM     H14B     HL       0.250000       1.00800           0
     16601 MEMB     134      23SM     H14C     HL       0.250000       1.00800           0
     16602 MEMB     134      23SM     C13      CTL5    -0.350000       12.0110           0
     16603 MEMB     134      23SM     H13A     HL       0.250000       1.00800           0
     16604 MEMB     134      23SM     H13B     HL       0.250000       1.00800           0
     16605 MEMB     134      23SM     H13C     HL       0.250000       1.00800           0
     16606 MEMB     134      23SM     C12      CTL2    -0.100000       12.0110           0
     16607 MEMB     134      23SM     H12A     HL       0.250000       1.00800           0
     16608 MEMB     134      23SM     H12B     HL       0.250000       1.00800           0
     16609 MEMB     134      23SM     C11      CTL2    -0.800000E-01   12.0110           0
     16610 MEMB     134      23SM     H11A     HAL2     0.900000E-01   1.00800           0
     16611 MEMB     134      23SM     H11B     HAL2     0.900000E-01   1.00800           0
     16612 MEMB     134      23SM     P        PL        1.50000       30.9740           0
     16613 MEMB     134      23SM     O13      O2L     -0.780000       15.9994           0
     16614 MEMB     134      23SM     O14      O2L     -0.780000       15.9994           0
     16615 MEMB     134      23SM     O11      OSLP    -0.570000       15.9994           0
     16616 MEMB     134      23SM     O12      OSLP    -0.570000       15.9994           0
     16617 MEMB     134      23SM     C1S      CTL2    -0.800000E-01   12.0110           0
     16618 MEMB     134      23SM     H1S      HAL2     0.900000E-01   1.00800           0
     16619 MEMB     134      23SM     H1T      HAL2     0.900000E-01   1.00800           0
     16620 MEMB     134      23SM     NF       NHL     -0.700000       14.0070           0
     16621 MEMB     134      23SM     HNF      H        0.350000       1.00800           0
     16622 MEMB     134      23SM     C2S      CTL1     0.300000       12.0110           0
     16623 MEMB     134      23SM     H2S      HAL1     0.500000E-01   1.00800           0
     16624 MEMB     134      23SM     C3S      CTO1     0.500000       12.0110           0
     16625 MEMB     134      23SM     H3S      HAL1    -0.110000       1.00800           0
     16626 MEMB     134      23SM     O3       OHL     -0.690000       15.9994           0
     16627 MEMB     134      23SM     HO3      HOL      0.300000       1.00800           0
     16628 MEMB     134      23SM     C4S      CEL3    -0.150000       12.0110           0
     16629 MEMB     134      23SM     H4S      HEL1     0.150000       1.00800           0
     16630 MEMB     134      23SM     C5S      CEL3    -0.150000       12.0110           0
     16631 MEMB     134      23SM     H5S      HEL1     0.150000       1.00800           0
     16632 MEMB     134      23SM     C6S      CTL2    -0.180000       12.0110           0
     16633 MEMB     134      23SM     H6S      HAL2     0.900000E-01   1.00800           0
     16634 MEMB     134      23SM     H6T      HAL2     0.900000E-01   1.00800           0
     16635 MEMB     134      23SM     C7S      CTL2    -0.180000       12.0110           0
     16636 MEMB     134      23SM     H7S      HAL2     0.900000E-01   1.00800           0
     16637 MEMB     134      23SM     H7T      HAL2     0.900000E-01   1.00800           0
     16638 MEMB     134      23SM     C8S      CTL2    -0.180000       12.0110           0
     16639 MEMB     134      23SM     H8S      HAL2     0.900000E-01   1.00800           0
     16640 MEMB     134      23SM     H8T      HAL2     0.900000E-01   1.00800           0
     16641 MEMB     134      23SM     C9S      CTL2    -0.180000       12.0110           0
     16642 MEMB     134      23SM     H9S      HAL2     0.900000E-01   1.00800           0
     16643 MEMB     134      23SM     H9T      HAL2     0.900000E-01   1.00800           0
     16644 MEMB     134      23SM     C10S     CTL2    -0.180000       12.0110           0
     16645 MEMB     134      23SM     H10S     HAL2     0.900000E-01   1.00800           0
     16646 MEMB     134      23SM     H10T     HAL2     0.900000E-01   1.00800           0
     16647 MEMB     134      23SM     C11S     CTL2    -0.180000       12.0110           0
     16648 MEMB     134      23SM     H11S     HAL2     0.900000E-01   1.00800           0
     16649 MEMB     134      23SM     H11T     HAL2     0.900000E-01   1.00800           0
     16650 MEMB     134      23SM     C12S     CTL2    -0.180000       12.0110           0
     16651 MEMB     134      23SM     H12S     HAL2     0.900000E-01   1.00800           0
     16652 MEMB     134      23SM     H12T     HAL2     0.900000E-01   1.00800           0
     16653 MEMB     134      23SM     C13S     CTL2    -0.180000       12.0110           0
     16654 MEMB     134      23SM     H13S     HAL2     0.900000E-01   1.00800           0
     16655 MEMB     134      23SM     H13T     HAL2     0.900000E-01   1.00800           0
     16656 MEMB     134      23SM     C14S     CTL2    -0.180000       12.0110           0
     16657 MEMB     134      23SM     H14S     HAL2     0.900000E-01   1.00800           0
     16658 MEMB     134      23SM     H14T     HAL2     0.900000E-01   1.00800           0
     16659 MEMB     134      23SM     C15S     CTL2    -0.180000       12.0110           0
     16660 MEMB     134      23SM     H15S     HAL2     0.900000E-01   1.00800           0
     16661 MEMB     134      23SM     H15T     HAL2     0.900000E-01   1.00800           0
     16662 MEMB     134      23SM     C16S     CTL2    -0.180000       12.0110           0
     16663 MEMB     134      23SM     H16S     HAL2     0.900000E-01   1.00800           0
     16664 MEMB     134      23SM     H16T     HAL2     0.900000E-01   1.00800           0
     16665 MEMB     134      23SM     C17S     CTL2    -0.180000       12.0110           0
     16666 MEMB     134      23SM     H17S     HAL2     0.900000E-01   1.00800           0
     16667 MEMB     134      23SM     H17T     HAL2     0.900000E-01   1.00800           0
     16668 MEMB     134      23SM     C18S     CTL3    -0.270000       12.0110           0
     16669 MEMB     134      23SM     H18S     HAL3     0.900000E-01   1.00800           0
     16670 MEMB     134      23SM     H18T     HAL3     0.900000E-01   1.00800           0
     16671 MEMB     134      23SM     H18U     HAL3     0.900000E-01   1.00800           0
     16672 MEMB     134      23SM     C1F      C        0.550000       12.0110           0
     16673 MEMB     134      23SM     OF       O       -0.600000       15.9994           0
     16674 MEMB     134      23SM     C2F      CTL2    -0.700000E-01   12.0110           0
     16675 MEMB     134      23SM     H2F      HAL2     0.600000E-01   1.00800           0
     16676 MEMB     134      23SM     H2G      HAL2     0.600000E-01   1.00800           0
     16677 MEMB     134      23SM     C3F      CTL2    -0.180000       12.0110           0
     16678 MEMB     134      23SM     H3F      HAL2     0.900000E-01   1.00800           0
     16679 MEMB     134      23SM     H3G      HAL2     0.900000E-01   1.00800           0
     16680 MEMB     134      23SM     C4F      CTL2    -0.180000       12.0110           0
     16681 MEMB     134      23SM     H4F      HAL2     0.900000E-01   1.00800           0
     16682 MEMB     134      23SM     H4G      HAL2     0.900000E-01   1.00800           0
     16683 MEMB     134      23SM     C5F      CTL2    -0.180000       12.0110           0
     16684 MEMB     134      23SM     H5F      HAL2     0.900000E-01   1.00800           0
     16685 MEMB     134      23SM     H5G      HAL2     0.900000E-01   1.00800           0
     16686 MEMB     134      23SM     C6F      CTL2    -0.180000       12.0110           0
     16687 MEMB     134      23SM     H6F      HAL2     0.900000E-01   1.00800           0
     16688 MEMB     134      23SM     H6G      HAL2     0.900000E-01   1.00800           0
     16689 MEMB     134      23SM     C7F      CTL2    -0.180000       12.0110           0
     16690 MEMB     134      23SM     H7F      HAL2     0.900000E-01   1.00800           0
     16691 MEMB     134      23SM     H7G      HAL2     0.900000E-01   1.00800           0
     16692 MEMB     134      23SM     C8F      CTL2    -0.180000       12.0110           0
     16693 MEMB     134      23SM     H8F      HAL2     0.900000E-01   1.00800           0
     16694 MEMB     134      23SM     H8G      HAL2     0.900000E-01   1.00800           0
     16695 MEMB     134      23SM     C9F      CTL2    -0.180000       12.0110           0
     16696 MEMB     134      23SM     H9F      HAL2     0.900000E-01   1.00800           0
     16697 MEMB     134      23SM     H9G      HAL2     0.900000E-01   1.00800           0
     16698 MEMB     134      23SM     C10F     CTL2    -0.180000       12.0110           0
     16699 MEMB     134      23SM     H10F     HAL2     0.900000E-01   1.00800           0
     16700 MEMB     134      23SM     H10G     HAL2     0.900000E-01   1.00800           0
     16701 MEMB     134      23SM     C11F     CTL2    -0.180000       12.0110           0
     16702 MEMB     134      23SM     H11F     HAL2     0.900000E-01   1.00800           0
     16703 MEMB     134      23SM     H11G     HAL2     0.900000E-01   1.00800           0
     16704 MEMB     134      23SM     C12F     CTL2    -0.180000       12.0110           0
     16705 MEMB     134      23SM     H12F     HAL2     0.900000E-01   1.00800           0
     16706 MEMB     134      23SM     H12G     HAL2     0.900000E-01   1.00800           0
     16707 MEMB     134      23SM     C13F     CTL2    -0.180000       12.0110           0
     16708 MEMB     134      23SM     H13F     HAL2     0.900000E-01   1.00800           0
     16709 MEMB     134      23SM     H13G     HAL2     0.900000E-01   1.00800           0
     16710 MEMB     134      23SM     C14F     CTL2    -0.180000       12.0110           0
     16711 MEMB     134      23SM     H14F     HAL2     0.900000E-01   1.00800           0
     16712 MEMB     134      23SM     H14G     HAL2     0.900000E-01   1.00800           0
     16713 MEMB     134      23SM     C15F     CTL2    -0.180000       12.0110           0
     16714 MEMB     134      23SM     H15F     HAL2     0.900000E-01   1.00800           0
     16715 MEMB     134      23SM     H15G     HAL2     0.900000E-01   1.00800           0
     16716 MEMB     134      23SM     C16F     CTL2    -0.180000       12.0110           0
     16717 MEMB     134      23SM     H16F     HAL2     0.900000E-01   1.00800           0
     16718 MEMB     134      23SM     H16G     HAL2     0.900000E-01   1.00800           0
     16719 MEMB     134      23SM     C17F     CTL2    -0.180000       12.0110           0
     16720 MEMB     134      23SM     H17F     HAL2     0.900000E-01   1.00800           0
     16721 MEMB     134      23SM     H17G     HAL2     0.900000E-01   1.00800           0
     16722 MEMB     134      23SM     C18F     CTL2    -0.180000       12.0110           0
     16723 MEMB     134      23SM     H18F     HAL2     0.900000E-01   1.00800           0
     16724 MEMB     134      23SM     H18G     HAL2     0.900000E-01   1.00800           0
     16725 MEMB     134      23SM     C19F     CTL2    -0.180000       12.0110           0
     16726 MEMB     134      23SM     H19F     HAL2     0.900000E-01   1.00800           0
     16727 MEMB     134      23SM     H19G     HAL2     0.900000E-01   1.00800           0
     16728 MEMB     134      23SM     C20F     CTL2    -0.180000       12.0110           0
     16729 MEMB     134      23SM     H20F     HAL2     0.900000E-01   1.00800           0
     16730 MEMB     134      23SM     H20G     HAL2     0.900000E-01   1.00800           0
     16731 MEMB     134      23SM     C21F     CTL2    -0.180000       12.0110           0
     16732 MEMB     134      23SM     H21F     HAL2     0.900000E-01   1.00800           0
     16733 MEMB     134      23SM     H21G     HAL2     0.900000E-01   1.00800           0
     16734 MEMB     134      23SM     C22F     CTL2    -0.180000       12.0110           0
     16735 MEMB     134      23SM     H22F     HAL2     0.900000E-01   1.00800           0
     16736 MEMB     134      23SM     H22G     HAL2     0.900000E-01   1.00800           0
     16737 MEMB     134      23SM     C23F     CTL3    -0.270000       12.0110           0
     16738 MEMB     134      23SM     H23F     HAL3     0.900000E-01   1.00800           0
     16739 MEMB     134      23SM     H23G     HAL3     0.900000E-01   1.00800           0
     16740 MEMB     134      23SM     H23H     HAL3     0.900000E-01   1.00800           0
     16741 MEMB     135      DOPC     N        NTL     -0.600000       14.0070           0
     16742 MEMB     135      DOPC     C12      CTL2    -0.100000       12.0110           0
     16743 MEMB     135      DOPC     H12A     HL       0.250000       1.00800           0
     16744 MEMB     135      DOPC     H12B     HL       0.250000       1.00800           0
     16745 MEMB     135      DOPC     C13      CTL5    -0.350000       12.0110           0
     16746 MEMB     135      DOPC     H13A     HL       0.250000       1.00800           0
     16747 MEMB     135      DOPC     H13B     HL       0.250000       1.00800           0
     16748 MEMB     135      DOPC     H13C     HL       0.250000       1.00800           0
     16749 MEMB     135      DOPC     C14      CTL5    -0.350000       12.0110           0
     16750 MEMB     135      DOPC     H14A     HL       0.250000       1.00800           0
     16751 MEMB     135      DOPC     H14B     HL       0.250000       1.00800           0
     16752 MEMB     135      DOPC     H14C     HL       0.250000       1.00800           0
     16753 MEMB     135      DOPC     C15      CTL5    -0.350000       12.0110           0
     16754 MEMB     135      DOPC     H15A     HL       0.250000       1.00800           0
     16755 MEMB     135      DOPC     H15B     HL       0.250000       1.00800           0
     16756 MEMB     135      DOPC     H15C     HL       0.250000       1.00800           0
     16757 MEMB     135      DOPC     C11      CTL2    -0.800000E-01   12.0110           0
     16758 MEMB     135      DOPC     H11A     HAL2     0.900000E-01   1.00800           0
     16759 MEMB     135      DOPC     H11B     HAL2     0.900000E-01   1.00800           0
     16760 MEMB     135      DOPC     P        PL        1.50000       30.9740           0
     16761 MEMB     135      DOPC     O13      O2L     -0.780000       15.9994           0
     16762 MEMB     135      DOPC     O14      O2L     -0.780000       15.9994           0
     16763 MEMB     135      DOPC     O12      OSLP    -0.570000       15.9994           0
     16764 MEMB     135      DOPC     O11      OSLP    -0.570000       15.9994           0
     16765 MEMB     135      DOPC     C1       CTL2    -0.800000E-01   12.0110           0
     16766 MEMB     135      DOPC     HA       HAL2     0.900000E-01   1.00800           0
     16767 MEMB     135      DOPC     HB       HAL2     0.900000E-01   1.00800           0
     16768 MEMB     135      DOPC     C2       CTL1     0.170000       12.0110           0
     16769 MEMB     135      DOPC     HS       HAL1     0.900000E-01   1.00800           0
     16770 MEMB     135      DOPC     O21      OSL     -0.490000       15.9994           0
     16771 MEMB     135      DOPC     C21      CL       0.900000       12.0110           0
     16772 MEMB     135      DOPC     O22      OBL     -0.630000       15.9994           0
     16773 MEMB     135      DOPC     C22      CTL2    -0.220000       12.0110           0
     16774 MEMB     135      DOPC     H2R      HAL2     0.900000E-01   1.00800           0
     16775 MEMB     135      DOPC     H2S      HAL2     0.900000E-01   1.00800           0
     16776 MEMB     135      DOPC     C3       CTL2     0.800000E-01   12.0110           0
     16777 MEMB     135      DOPC     HX       HAL2     0.900000E-01   1.00800           0
     16778 MEMB     135      DOPC     HY       HAL2     0.900000E-01   1.00800           0
     16779 MEMB     135      DOPC     O31      OSL     -0.490000       15.9994           0
     16780 MEMB     135      DOPC     C31      CL       0.900000       12.0110           0
     16781 MEMB     135      DOPC     O32      OBL     -0.630000       15.9994           0
     16782 MEMB     135      DOPC     C32      CTL2    -0.220000       12.0110           0
     16783 MEMB     135      DOPC     H2X      HAL2     0.900000E-01   1.00800           0
     16784 MEMB     135      DOPC     H2Y      HAL2     0.900000E-01   1.00800           0
     16785 MEMB     135      DOPC     C23      CTL2    -0.180000       12.0110           0
     16786 MEMB     135      DOPC     H3R      HAL2     0.900000E-01   1.00800           0
     16787 MEMB     135      DOPC     H3S      HAL2     0.900000E-01   1.00800           0
     16788 MEMB     135      DOPC     C24      CTL2    -0.180000       12.0110           0
     16789 MEMB     135      DOPC     H4R      HAL2     0.900000E-01   1.00800           0
     16790 MEMB     135      DOPC     H4S      HAL2     0.900000E-01   1.00800           0
     16791 MEMB     135      DOPC     C25      CTL2    -0.180000       12.0110           0
     16792 MEMB     135      DOPC     H5R      HAL2     0.900000E-01   1.00800           0
     16793 MEMB     135      DOPC     H5S      HAL2     0.900000E-01   1.00800           0
     16794 MEMB     135      DOPC     C26      CTL2    -0.180000       12.0110           0
     16795 MEMB     135      DOPC     H6R      HAL2     0.900000E-01   1.00800           0
     16796 MEMB     135      DOPC     H6S      HAL2     0.900000E-01   1.00800           0
     16797 MEMB     135      DOPC     C27      CTL2    -0.180000       12.0110           0
     16798 MEMB     135      DOPC     H7R      HAL2     0.900000E-01   1.00800           0
     16799 MEMB     135      DOPC     H7S      HAL2     0.900000E-01   1.00800           0
     16800 MEMB     135      DOPC     C28      CTL2    -0.180000       12.0110           0
     16801 MEMB     135      DOPC     H8R      HAL2     0.900000E-01   1.00800           0
     16802 MEMB     135      DOPC     H8S      HAL2     0.900000E-01   1.00800           0
     16803 MEMB     135      DOPC     C29      CEL1    -0.150000       12.0110           0
     16804 MEMB     135      DOPC     H9R      HEL1     0.150000       1.00800           0
     16805 MEMB     135      DOPC     C210     CEL1    -0.150000       12.0110           0
     16806 MEMB     135      DOPC     H10R     HEL1     0.150000       1.00800           0
     16807 MEMB     135      DOPC     C211     CTL2    -0.180000       12.0110           0
     16808 MEMB     135      DOPC     H11R     HAL2     0.900000E-01   1.00800           0
     16809 MEMB     135      DOPC     H11S     HAL2     0.900000E-01   1.00800           0
     16810 MEMB     135      DOPC     C212     CTL2    -0.180000       12.0110           0
     16811 MEMB     135      DOPC     H12R     HAL2     0.900000E-01   1.00800           0
     16812 MEMB     135      DOPC     H12S     HAL2     0.900000E-01   1.00800           0
     16813 MEMB     135      DOPC     C213     CTL2    -0.180000       12.0110           0
     16814 MEMB     135      DOPC     H13R     HAL2     0.900000E-01   1.00800           0
     16815 MEMB     135      DOPC     H13S     HAL2     0.900000E-01   1.00800           0
     16816 MEMB     135      DOPC     C214     CTL2    -0.180000       12.0110           0
     16817 MEMB     135      DOPC     H14R     HAL2     0.900000E-01   1.00800           0
     16818 MEMB     135      DOPC     H14S     HAL2     0.900000E-01   1.00800           0
     16819 MEMB     135      DOPC     C215     CTL2    -0.180000       12.0110           0
     16820 MEMB     135      DOPC     H15R     HAL2     0.900000E-01   1.00800           0
     16821 MEMB     135      DOPC     H15S     HAL2     0.900000E-01   1.00800           0
     16822 MEMB     135      DOPC     C216     CTL2    -0.180000       12.0110           0
     16823 MEMB     135      DOPC     H16R     HAL2     0.900000E-01   1.00800           0
     16824 MEMB     135      DOPC     H16S     HAL2     0.900000E-01   1.00800           0
     16825 MEMB     135      DOPC     C217     CTL2    -0.180000       12.0110           0
     16826 MEMB     135      DOPC     H17R     HAL2     0.900000E-01   1.00800           0
     16827 MEMB     135      DOPC     H17S     HAL2     0.900000E-01   1.00800           0
     16828 MEMB     135      DOPC     C218     CTL3    -0.270000       12.0110           0
     16829 MEMB     135      DOPC     H18R     HAL3     0.900000E-01   1.00800           0
     16830 MEMB     135      DOPC     H18S     HAL3     0.900000E-01   1.00800           0
     16831 MEMB     135      DOPC     H18T     HAL3     0.900000E-01   1.00800           0
     16832 MEMB     135      DOPC     C33      CTL2    -0.180000       12.0110           0
     16833 MEMB     135      DOPC     H3X      HAL2     0.900000E-01   1.00800           0
     16834 MEMB     135      DOPC     H3Y      HAL2     0.900000E-01   1.00800           0
     16835 MEMB     135      DOPC     C34      CTL2    -0.180000       12.0110           0
     16836 MEMB     135      DOPC     H4X      HAL2     0.900000E-01   1.00800           0
     16837 MEMB     135      DOPC     H4Y      HAL2     0.900000E-01   1.00800           0
     16838 MEMB     135      DOPC     C35      CTL2    -0.180000       12.0110           0
     16839 MEMB     135      DOPC     H5X      HAL2     0.900000E-01   1.00800           0
     16840 MEMB     135      DOPC     H5Y      HAL2     0.900000E-01   1.00800           0
     16841 MEMB     135      DOPC     C36      CTL2    -0.180000       12.0110           0
     16842 MEMB     135      DOPC     H6X      HAL2     0.900000E-01   1.00800           0
     16843 MEMB     135      DOPC     H6Y      HAL2     0.900000E-01   1.00800           0
     16844 MEMB     135      DOPC     C37      CTL2    -0.180000       12.0110           0
     16845 MEMB     135      DOPC     H7X      HAL2     0.900000E-01   1.00800           0
     16846 MEMB     135      DOPC     H7Y      HAL2     0.900000E-01   1.00800           0
     16847 MEMB     135      DOPC     C38      CTL2    -0.180000       12.0110           0
     16848 MEMB     135      DOPC     H8X      HAL2     0.900000E-01   1.00800           0
     16849 MEMB     135      DOPC     H8Y      HAL2     0.900000E-01   1.00800           0
     16850 MEMB     135      DOPC     C39      CEL1    -0.150000       12.0110           0
     16851 MEMB     135      DOPC     H9X      HEL1     0.150000       1.00800           0
     16852 MEMB     135      DOPC     C310     CEL1    -0.150000       12.0110           0
     16853 MEMB     135      DOPC     H10X     HEL1     0.150000       1.00800           0
     16854 MEMB     135      DOPC     C311     CTL2    -0.180000       12.0110           0
     16855 MEMB     135      DOPC     H11X     HAL2     0.900000E-01   1.00800           0
     16856 MEMB     135      DOPC     H11Y     HAL2     0.900000E-01   1.00800           0
     16857 MEMB     135      DOPC     C312     CTL2    -0.180000       12.0110           0
     16858 MEMB     135      DOPC     H12X     HAL2     0.900000E-01   1.00800           0
     16859 MEMB     135      DOPC     H12Y     HAL2     0.900000E-01   1.00800           0
     16860 MEMB     135      DOPC     C313     CTL2    -0.180000       12.0110           0
     16861 MEMB     135      DOPC     H13X     HAL2     0.900000E-01   1.00800           0
     16862 MEMB     135      DOPC     H13Y     HAL2     0.900000E-01   1.00800           0
     16863 MEMB     135      DOPC     C314     CTL2    -0.180000       12.0110           0
     16864 MEMB     135      DOPC     H14X     HAL2     0.900000E-01   1.00800           0
     16865 MEMB     135      DOPC     H14Y     HAL2     0.900000E-01   1.00800           0
     16866 MEMB     135      DOPC     C315     CTL2    -0.180000       12.0110           0
     16867 MEMB     135      DOPC     H15X     HAL2     0.900000E-01   1.00800           0
     16868 MEMB     135      DOPC     H15Y     HAL2     0.900000E-01   1.00800           0
     16869 MEMB     135      DOPC     C316     CTL2    -0.180000       12.0110           0
     16870 MEMB     135      DOPC     H16X     HAL2     0.900000E-01   1.00800           0
     16871 MEMB     135      DOPC     H16Y     HAL2     0.900000E-01   1.00800           0
     16872 MEMB     135      DOPC     C317     CTL2    -0.180000       12.0110           0
     16873 MEMB     135      DOPC     H17X     HAL2     0.900000E-01   1.00800           0
     16874 MEMB     135      DOPC     H17Y     HAL2     0.900000E-01   1.00800           0
     16875 MEMB     135      DOPC     C318     CTL3    -0.270000       12.0110           0
     16876 MEMB     135      DOPC     H18X     HAL3     0.900000E-01   1.00800           0
     16877 MEMB     135      DOPC     H18Y     HAL3     0.900000E-01   1.00800           0
     16878 MEMB     135      DOPC     H18Z     HAL3     0.900000E-01   1.00800           0
     16879 MEMB     136      DOPC     N        NTL     -0.600000       14.0070           0
     16880 MEMB     136      DOPC     C12      CTL2    -0.100000       12.0110           0
     16881 MEMB     136      DOPC     H12A     HL       0.250000       1.00800           0
     16882 MEMB     136      DOPC     H12B     HL       0.250000       1.00800           0
     16883 MEMB     136      DOPC     C13      CTL5    -0.350000       12.0110           0
     16884 MEMB     136      DOPC     H13A     HL       0.250000       1.00800           0
     16885 MEMB     136      DOPC     H13B     HL       0.250000       1.00800           0
     16886 MEMB     136      DOPC     H13C     HL       0.250000       1.00800           0
     16887 MEMB     136      DOPC     C14      CTL5    -0.350000       12.0110           0
     16888 MEMB     136      DOPC     H14A     HL       0.250000       1.00800           0
     16889 MEMB     136      DOPC     H14B     HL       0.250000       1.00800           0
     16890 MEMB     136      DOPC     H14C     HL       0.250000       1.00800           0
     16891 MEMB     136      DOPC     C15      CTL5    -0.350000       12.0110           0
     16892 MEMB     136      DOPC     H15A     HL       0.250000       1.00800           0
     16893 MEMB     136      DOPC     H15B     HL       0.250000       1.00800           0
     16894 MEMB     136      DOPC     H15C     HL       0.250000       1.00800           0
     16895 MEMB     136      DOPC     C11      CTL2    -0.800000E-01   12.0110           0
     16896 MEMB     136      DOPC     H11A     HAL2     0.900000E-01   1.00800           0
     16897 MEMB     136      DOPC     H11B     HAL2     0.900000E-01   1.00800           0
     16898 MEMB     136      DOPC     P        PL        1.50000       30.9740           0
     16899 MEMB     136      DOPC     O13      O2L     -0.780000       15.9994           0
     16900 MEMB     136      DOPC     O14      O2L     -0.780000       15.9994           0
     16901 MEMB     136      DOPC     O12      OSLP    -0.570000       15.9994           0
     16902 MEMB     136      DOPC     O11      OSLP    -0.570000       15.9994           0
     16903 MEMB     136      DOPC     C1       CTL2    -0.800000E-01   12.0110           0
     16904 MEMB     136      DOPC     HA       HAL2     0.900000E-01   1.00800           0
     16905 MEMB     136      DOPC     HB       HAL2     0.900000E-01   1.00800           0
     16906 MEMB     136      DOPC     C2       CTL1     0.170000       12.0110           0
     16907 MEMB     136      DOPC     HS       HAL1     0.900000E-01   1.00800           0
     16908 MEMB     136      DOPC     O21      OSL     -0.490000       15.9994           0
     16909 MEMB     136      DOPC     C21      CL       0.900000       12.0110           0
     16910 MEMB     136      DOPC     O22      OBL     -0.630000       15.9994           0
     16911 MEMB     136      DOPC     C22      CTL2    -0.220000       12.0110           0
     16912 MEMB     136      DOPC     H2R      HAL2     0.900000E-01   1.00800           0
     16913 MEMB     136      DOPC     H2S      HAL2     0.900000E-01   1.00800           0
     16914 MEMB     136      DOPC     C3       CTL2     0.800000E-01   12.0110           0
     16915 MEMB     136      DOPC     HX       HAL2     0.900000E-01   1.00800           0
     16916 MEMB     136      DOPC     HY       HAL2     0.900000E-01   1.00800           0
     16917 MEMB     136      DOPC     O31      OSL     -0.490000       15.9994           0
     16918 MEMB     136      DOPC     C31      CL       0.900000       12.0110           0
     16919 MEMB     136      DOPC     O32      OBL     -0.630000       15.9994           0
     16920 MEMB     136      DOPC     C32      CTL2    -0.220000       12.0110           0
     16921 MEMB     136      DOPC     H2X      HAL2     0.900000E-01   1.00800           0
     16922 MEMB     136      DOPC     H2Y      HAL2     0.900000E-01   1.00800           0
     16923 MEMB     136      DOPC     C23      CTL2    -0.180000       12.0110           0
     16924 MEMB     136      DOPC     H3R      HAL2     0.900000E-01   1.00800           0
     16925 MEMB     136      DOPC     H3S      HAL2     0.900000E-01   1.00800           0
     16926 MEMB     136      DOPC     C24      CTL2    -0.180000       12.0110           0
     16927 MEMB     136      DOPC     H4R      HAL2     0.900000E-01   1.00800           0
     16928 MEMB     136      DOPC     H4S      HAL2     0.900000E-01   1.00800           0
     16929 MEMB     136      DOPC     C25      CTL2    -0.180000       12.0110           0
     16930 MEMB     136      DOPC     H5R      HAL2     0.900000E-01   1.00800           0
     16931 MEMB     136      DOPC     H5S      HAL2     0.900000E-01   1.00800           0
     16932 MEMB     136      DOPC     C26      CTL2    -0.180000       12.0110           0
     16933 MEMB     136      DOPC     H6R      HAL2     0.900000E-01   1.00800           0
     16934 MEMB     136      DOPC     H6S      HAL2     0.900000E-01   1.00800           0
     16935 MEMB     136      DOPC     C27      CTL2    -0.180000       12.0110           0
     16936 MEMB     136      DOPC     H7R      HAL2     0.900000E-01   1.00800           0
     16937 MEMB     136      DOPC     H7S      HAL2     0.900000E-01   1.00800           0
     16938 MEMB     136      DOPC     C28      CTL2    -0.180000       12.0110           0
     16939 MEMB     136      DOPC     H8R      HAL2     0.900000E-01   1.00800           0
     16940 MEMB     136      DOPC     H8S      HAL2     0.900000E-01   1.00800           0
     16941 MEMB     136      DOPC     C29      CEL1    -0.150000       12.0110           0
     16942 MEMB     136      DOPC     H9R      HEL1     0.150000       1.00800           0
     16943 MEMB     136      DOPC     C210     CEL1    -0.150000       12.0110           0
     16944 MEMB     136      DOPC     H10R     HEL1     0.150000       1.00800           0
     16945 MEMB     136      DOPC     C211     CTL2    -0.180000       12.0110           0
     16946 MEMB     136      DOPC     H11R     HAL2     0.900000E-01   1.00800           0
     16947 MEMB     136      DOPC     H11S     HAL2     0.900000E-01   1.00800           0
     16948 MEMB     136      DOPC     C212     CTL2    -0.180000       12.0110           0
     16949 MEMB     136      DOPC     H12R     HAL2     0.900000E-01   1.00800           0
     16950 MEMB     136      DOPC     H12S     HAL2     0.900000E-01   1.00800           0
     16951 MEMB     136      DOPC     C213     CTL2    -0.180000       12.0110           0
     16952 MEMB     136      DOPC     H13R     HAL2     0.900000E-01   1.00800           0
     16953 MEMB     136      DOPC     H13S     HAL2     0.900000E-01   1.00800           0
     16954 MEMB     136      DOPC     C214     CTL2    -0.180000       12.0110           0
     16955 MEMB     136      DOPC     H14R     HAL2     0.900000E-01   1.00800           0
     16956 MEMB     136      DOPC     H14S     HAL2     0.900000E-01   1.00800           0
     16957 MEMB     136      DOPC     C215     CTL2    -0.180000       12.0110           0
     16958 MEMB     136      DOPC     H15R     HAL2     0.900000E-01   1.00800           0
     16959 MEMB     136      DOPC     H15S     HAL2     0.900000E-01   1.00800           0
     16960 MEMB     136      DOPC     C216     CTL2    -0.180000       12.0110           0
     16961 MEMB     136      DOPC     H16R     HAL2     0.900000E-01   1.00800           0
     16962 MEMB     136      DOPC     H16S     HAL2     0.900000E-01   1.00800           0
     16963 MEMB     136      DOPC     C217     CTL2    -0.180000       12.0110           0
     16964 MEMB     136      DOPC     H17R     HAL2     0.900000E-01   1.00800           0
     16965 MEMB     136      DOPC     H17S     HAL2     0.900000E-01   1.00800           0
     16966 MEMB     136      DOPC     C218     CTL3    -0.270000       12.0110           0
     16967 MEMB     136      DOPC     H18R     HAL3     0.900000E-01   1.00800           0
     16968 MEMB     136      DOPC     H18S     HAL3     0.900000E-01   1.00800           0
     16969 MEMB     136      DOPC     H18T     HAL3     0.900000E-01   1.00800           0
     16970 MEMB     136      DOPC     C33      CTL2    -0.180000       12.0110           0
     16971 MEMB     136      DOPC     H3X      HAL2     0.900000E-01   1.00800           0
     16972 MEMB     136      DOPC     H3Y      HAL2     0.900000E-01   1.00800           0
     16973 MEMB     136      DOPC     C34      CTL2    -0.180000       12.0110           0
     16974 MEMB     136      DOPC     H4X      HAL2     0.900000E-01   1.00800           0
     16975 MEMB     136      DOPC     H4Y      HAL2     0.900000E-01   1.00800           0
     16976 MEMB     136      DOPC     C35      CTL2    -0.180000       12.0110           0
     16977 MEMB     136      DOPC     H5X      HAL2     0.900000E-01   1.00800           0
     16978 MEMB     136      DOPC     H5Y      HAL2     0.900000E-01   1.00800           0
     16979 MEMB     136      DOPC     C36      CTL2    -0.180000       12.0110           0
     16980 MEMB     136      DOPC     H6X      HAL2     0.900000E-01   1.00800           0
     16981 MEMB     136      DOPC     H6Y      HAL2     0.900000E-01   1.00800           0
     16982 MEMB     136      DOPC     C37      CTL2    -0.180000       12.0110           0
     16983 MEMB     136      DOPC     H7X      HAL2     0.900000E-01   1.00800           0
     16984 MEMB     136      DOPC     H7Y      HAL2     0.900000E-01   1.00800           0
     16985 MEMB     136      DOPC     C38      CTL2    -0.180000       12.0110           0
     16986 MEMB     136      DOPC     H8X      HAL2     0.900000E-01   1.00800           0
     16987 MEMB     136      DOPC     H8Y      HAL2     0.900000E-01   1.00800           0
     16988 MEMB     136      DOPC     C39      CEL1    -0.150000       12.0110           0
     16989 MEMB     136      DOPC     H9X      HEL1     0.150000       1.00800           0
     16990 MEMB     136      DOPC     C310     CEL1    -0.150000       12.0110           0
     16991 MEMB     136      DOPC     H10X     HEL1     0.150000       1.00800           0
     16992 MEMB     136      DOPC     C311     CTL2    -0.180000       12.0110           0
     16993 MEMB     136      DOPC     H11X     HAL2     0.900000E-01   1.00800           0
     16994 MEMB     136      DOPC     H11Y     HAL2     0.900000E-01   1.00800           0
     16995 MEMB     136      DOPC     C312     CTL2    -0.180000       12.0110           0
     16996 MEMB     136      DOPC     H12X     HAL2     0.900000E-01   1.00800           0
     16997 MEMB     136      DOPC     H12Y     HAL2     0.900000E-01   1.00800           0
     16998 MEMB     136      DOPC     C313     CTL2    -0.180000       12.0110           0
     16999 MEMB     136      DOPC     H13X     HAL2     0.900000E-01   1.00800           0
     17000 MEMB     136      DOPC     H13Y     HAL2     0.900000E-01   1.00800           0
     17001 MEMB     136      DOPC     C314     CTL2    -0.180000       12.0110           0
     17002 MEMB     136      DOPC     H14X     HAL2     0.900000E-01   1.00800           0
     17003 MEMB     136      DOPC     H14Y     HAL2     0.900000E-01   1.00800           0
     17004 MEMB     136      DOPC     C315     CTL2    -0.180000       12.0110           0
     17005 MEMB     136      DOPC     H15X     HAL2     0.900000E-01   1.00800           0
     17006 MEMB     136      DOPC     H15Y     HAL2     0.900000E-01   1.00800           0
     17007 MEMB     136      DOPC     C316     CTL2    -0.180000       12.0110           0
     17008 MEMB     136      DOPC     H16X     HAL2     0.900000E-01   1.00800           0
     17009 MEMB     136      DOPC     H16Y     HAL2     0.900000E-01   1.00800           0
     17010 MEMB     136      DOPC     C317     CTL2    -0.180000       12.0110           0
     17011 MEMB     136      DOPC     H17X     HAL2     0.900000E-01   1.00800           0
     17012 MEMB     136      DOPC     H17Y     HAL2     0.900000E-01   1.00800           0
     17013 MEMB     136      DOPC     C318     CTL3    -0.270000       12.0110           0
     17014 MEMB     136      DOPC     H18X     HAL3     0.900000E-01   1.00800           0
     17015 MEMB     136      DOPC     H18Y     HAL3     0.900000E-01   1.00800           0
     17016 MEMB     136      DOPC     H18Z     HAL3     0.900000E-01   1.00800           0
     17017 MEMB     137      DOPE     N        NH3L    -0.300000       14.0070           0
     17018 MEMB     137      DOPE     HN1      HCL      0.330000       1.00800           0
     17019 MEMB     137      DOPE     HN2      HCL      0.330000       1.00800           0
     17020 MEMB     137      DOPE     HN3      HCL      0.330000       1.00800           0
     17021 MEMB     137      DOPE     C12      CTL2     0.130000       12.0110           0
     17022 MEMB     137      DOPE     H12A     HAL2     0.900000E-01   1.00800           0
     17023 MEMB     137      DOPE     H12B     HAL2     0.900000E-01   1.00800           0
     17024 MEMB     137      DOPE     C11      CTL2    -0.800000E-01   12.0110           0
     17025 MEMB     137      DOPE     H11A     HAL2     0.900000E-01   1.00800           0
     17026 MEMB     137      DOPE     H11B     HAL2     0.900000E-01   1.00800           0
     17027 MEMB     137      DOPE     P        PL        1.50000       30.9740           0
     17028 MEMB     137      DOPE     O13      O2L     -0.780000       15.9994           0
     17029 MEMB     137      DOPE     O14      O2L     -0.780000       15.9994           0
     17030 MEMB     137      DOPE     O11      OSLP    -0.570000       15.9994           0
     17031 MEMB     137      DOPE     O12      OSLP    -0.570000       15.9994           0
     17032 MEMB     137      DOPE     C1       CTL2    -0.800000E-01   12.0110           0
     17033 MEMB     137      DOPE     HA       HAL2     0.900000E-01   1.00800           0
     17034 MEMB     137      DOPE     HB       HAL2     0.900000E-01   1.00800           0
     17035 MEMB     137      DOPE     C2       CTL1     0.170000       12.0110           0
     17036 MEMB     137      DOPE     HS       HAL1     0.900000E-01   1.00800           0
     17037 MEMB     137      DOPE     O21      OSL     -0.490000       15.9994           0
     17038 MEMB     137      DOPE     C21      CL       0.900000       12.0110           0
     17039 MEMB     137      DOPE     O22      OBL     -0.630000       15.9994           0
     17040 MEMB     137      DOPE     C22      CTL2    -0.220000       12.0110           0
     17041 MEMB     137      DOPE     H2R      HAL2     0.900000E-01   1.00800           0
     17042 MEMB     137      DOPE     H2S      HAL2     0.900000E-01   1.00800           0
     17043 MEMB     137      DOPE     C3       CTL2     0.800000E-01   12.0110           0
     17044 MEMB     137      DOPE     HX       HAL2     0.900000E-01   1.00800           0
     17045 MEMB     137      DOPE     HY       HAL2     0.900000E-01   1.00800           0
     17046 MEMB     137      DOPE     O31      OSL     -0.490000       15.9994           0
     17047 MEMB     137      DOPE     C31      CL       0.900000       12.0110           0
     17048 MEMB     137      DOPE     O32      OBL     -0.630000       15.9994           0
     17049 MEMB     137      DOPE     C32      CTL2    -0.220000       12.0110           0
     17050 MEMB     137      DOPE     H2X      HAL2     0.900000E-01   1.00800           0
     17051 MEMB     137      DOPE     H2Y      HAL2     0.900000E-01   1.00800           0
     17052 MEMB     137      DOPE     C23      CTL2    -0.180000       12.0110           0
     17053 MEMB     137      DOPE     H3R      HAL2     0.900000E-01   1.00800           0
     17054 MEMB     137      DOPE     H3S      HAL2     0.900000E-01   1.00800           0
     17055 MEMB     137      DOPE     C24      CTL2    -0.180000       12.0110           0
     17056 MEMB     137      DOPE     H4R      HAL2     0.900000E-01   1.00800           0
     17057 MEMB     137      DOPE     H4S      HAL2     0.900000E-01   1.00800           0
     17058 MEMB     137      DOPE     C25      CTL2    -0.180000       12.0110           0
     17059 MEMB     137      DOPE     H5R      HAL2     0.900000E-01   1.00800           0
     17060 MEMB     137      DOPE     H5S      HAL2     0.900000E-01   1.00800           0
     17061 MEMB     137      DOPE     C26      CTL2    -0.180000       12.0110           0
     17062 MEMB     137      DOPE     H6R      HAL2     0.900000E-01   1.00800           0
     17063 MEMB     137      DOPE     H6S      HAL2     0.900000E-01   1.00800           0
     17064 MEMB     137      DOPE     C27      CTL2    -0.180000       12.0110           0
     17065 MEMB     137      DOPE     H7R      HAL2     0.900000E-01   1.00800           0
     17066 MEMB     137      DOPE     H7S      HAL2     0.900000E-01   1.00800           0
     17067 MEMB     137      DOPE     C28      CTL2    -0.180000       12.0110           0
     17068 MEMB     137      DOPE     H8R      HAL2     0.900000E-01   1.00800           0
     17069 MEMB     137      DOPE     H8S      HAL2     0.900000E-01   1.00800           0
     17070 MEMB     137      DOPE     C29      CEL1    -0.150000       12.0110           0
     17071 MEMB     137      DOPE     H9R      HEL1     0.150000       1.00800           0
     17072 MEMB     137      DOPE     C210     CEL1    -0.150000       12.0110           0
     17073 MEMB     137      DOPE     H10R     HEL1     0.150000       1.00800           0
     17074 MEMB     137      DOPE     C211     CTL2    -0.180000       12.0110           0
     17075 MEMB     137      DOPE     H11R     HAL2     0.900000E-01   1.00800           0
     17076 MEMB     137      DOPE     H11S     HAL2     0.900000E-01   1.00800           0
     17077 MEMB     137      DOPE     C212     CTL2    -0.180000       12.0110           0
     17078 MEMB     137      DOPE     H12R     HAL2     0.900000E-01   1.00800           0
     17079 MEMB     137      DOPE     H12S     HAL2     0.900000E-01   1.00800           0
     17080 MEMB     137      DOPE     C213     CTL2    -0.180000       12.0110           0
     17081 MEMB     137      DOPE     H13R     HAL2     0.900000E-01   1.00800           0
     17082 MEMB     137      DOPE     H13S     HAL2     0.900000E-01   1.00800           0
     17083 MEMB     137      DOPE     C214     CTL2    -0.180000       12.0110           0
     17084 MEMB     137      DOPE     H14R     HAL2     0.900000E-01   1.00800           0
     17085 MEMB     137      DOPE     H14S     HAL2     0.900000E-01   1.00800           0
     17086 MEMB     137      DOPE     C215     CTL2    -0.180000       12.0110           0
     17087 MEMB     137      DOPE     H15R     HAL2     0.900000E-01   1.00800           0
     17088 MEMB     137      DOPE     H15S     HAL2     0.900000E-01   1.00800           0
     17089 MEMB     137      DOPE     C216     CTL2    -0.180000       12.0110           0
     17090 MEMB     137      DOPE     H16R     HAL2     0.900000E-01   1.00800           0
     17091 MEMB     137      DOPE     H16S     HAL2     0.900000E-01   1.00800           0
     17092 MEMB     137      DOPE     C217     CTL2    -0.180000       12.0110           0
     17093 MEMB     137      DOPE     H17R     HAL2     0.900000E-01   1.00800           0
     17094 MEMB     137      DOPE     H17S     HAL2     0.900000E-01   1.00800           0
     17095 MEMB     137      DOPE     C218     CTL3    -0.270000       12.0110           0
     17096 MEMB     137      DOPE     H18R     HAL3     0.900000E-01   1.00800           0
     17097 MEMB     137      DOPE     H18S     HAL3     0.900000E-01   1.00800           0
     17098 MEMB     137      DOPE     H18T     HAL3     0.900000E-01   1.00800           0
     17099 MEMB     137      DOPE     C33      CTL2    -0.180000       12.0110           0
     17100 MEMB     137      DOPE     H3X      HAL2     0.900000E-01   1.00800           0
     17101 MEMB     137      DOPE     H3Y      HAL2     0.900000E-01   1.00800           0
     17102 MEMB     137      DOPE     C34      CTL2    -0.180000       12.0110           0
     17103 MEMB     137      DOPE     H4X      HAL2     0.900000E-01   1.00800           0
     17104 MEMB     137      DOPE     H4Y      HAL2     0.900000E-01   1.00800           0
     17105 MEMB     137      DOPE     C35      CTL2    -0.180000       12.0110           0
     17106 MEMB     137      DOPE     H5X      HAL2     0.900000E-01   1.00800           0
     17107 MEMB     137      DOPE     H5Y      HAL2     0.900000E-01   1.00800           0
     17108 MEMB     137      DOPE     C36      CTL2    -0.180000       12.0110           0
     17109 MEMB     137      DOPE     H6X      HAL2     0.900000E-01   1.00800           0
     17110 MEMB     137      DOPE     H6Y      HAL2     0.900000E-01   1.00800           0
     17111 MEMB     137      DOPE     C37      CTL2    -0.180000       12.0110           0
     17112 MEMB     137      DOPE     H7X      HAL2     0.900000E-01   1.00800           0
     17113 MEMB     137      DOPE     H7Y      HAL2     0.900000E-01   1.00800           0
     17114 MEMB     137      DOPE     C38      CTL2    -0.180000       12.0110           0
     17115 MEMB     137      DOPE     H8X      HAL2     0.900000E-01   1.00800           0
     17116 MEMB     137      DOPE     H8Y      HAL2     0.900000E-01   1.00800           0
     17117 MEMB     137      DOPE     C39      CEL1    -0.150000       12.0110           0
     17118 MEMB     137      DOPE     H9X      HEL1     0.150000       1.00800           0
     17119 MEMB     137      DOPE     C310     CEL1    -0.150000       12.0110           0
     17120 MEMB     137      DOPE     H10X     HEL1     0.150000       1.00800           0
     17121 MEMB     137      DOPE     C311     CTL2    -0.180000       12.0110           0
     17122 MEMB     137      DOPE     H11X     HAL2     0.900000E-01   1.00800           0
     17123 MEMB     137      DOPE     H11Y     HAL2     0.900000E-01   1.00800           0
     17124 MEMB     137      DOPE     C312     CTL2    -0.180000       12.0110           0
     17125 MEMB     137      DOPE     H12X     HAL2     0.900000E-01   1.00800           0
     17126 MEMB     137      DOPE     H12Y     HAL2     0.900000E-01   1.00800           0
     17127 MEMB     137      DOPE     C313     CTL2    -0.180000       12.0110           0
     17128 MEMB     137      DOPE     H13X     HAL2     0.900000E-01   1.00800           0
     17129 MEMB     137      DOPE     H13Y     HAL2     0.900000E-01   1.00800           0
     17130 MEMB     137      DOPE     C314     CTL2    -0.180000       12.0110           0
     17131 MEMB     137      DOPE     H14X     HAL2     0.900000E-01   1.00800           0
     17132 MEMB     137      DOPE     H14Y     HAL2     0.900000E-01   1.00800           0
     17133 MEMB     137      DOPE     C315     CTL2    -0.180000       12.0110           0
     17134 MEMB     137      DOPE     H15X     HAL2     0.900000E-01   1.00800           0
     17135 MEMB     137      DOPE     H15Y     HAL2     0.900000E-01   1.00800           0
     17136 MEMB     137      DOPE     C316     CTL2    -0.180000       12.0110           0
     17137 MEMB     137      DOPE     H16X     HAL2     0.900000E-01   1.00800           0
     17138 MEMB     137      DOPE     H16Y     HAL2     0.900000E-01   1.00800           0
     17139 MEMB     137      DOPE     C317     CTL2    -0.180000       12.0110           0
     17140 MEMB     137      DOPE     H17X     HAL2     0.900000E-01   1.00800           0
     17141 MEMB     137      DOPE     H17Y     HAL2     0.900000E-01   1.00800           0
     17142 MEMB     137      DOPE     C318     CTL3    -0.270000       12.0110           0
     17143 MEMB     137      DOPE     H18X     HAL3     0.900000E-01   1.00800           0
     17144 MEMB     137      DOPE     H18Y     HAL3     0.900000E-01   1.00800           0
     17145 MEMB     137      DOPE     H18Z     HAL3     0.900000E-01   1.00800           0
     17146 MEMB     138      CHL1     C3       CRL1     0.140000       12.0110           0
     17147 MEMB     138      CHL1     H3       HGA1     0.900000E-01   1.00800           0
     17148 MEMB     138      CHL1     O3       OHL     -0.660000       15.9994           0
     17149 MEMB     138      CHL1     H3'      HOL      0.430000       1.00800           0
     17150 MEMB     138      CHL1     C4       CRL2    -0.180000       12.0110           0
     17151 MEMB     138      CHL1     H4A      HGA2     0.900000E-01   1.00800           0
     17152 MEMB     138      CHL1     H4B      HGA2     0.900000E-01   1.00800           0
     17153 MEMB     138      CHL1     C5       CEL1      0.00000       12.0110           0
     17154 MEMB     138      CHL1     C6       CEL1    -0.150000       12.0110           0
     17155 MEMB     138      CHL1     H6       HEL1     0.150000       1.00800           0
     17156 MEMB     138      CHL1     C7       CRL2    -0.180000       12.0110           0
     17157 MEMB     138      CHL1     H7A      HGA2     0.900000E-01   1.00800           0
     17158 MEMB     138      CHL1     H7B      HGA2     0.900000E-01   1.00800           0
     17159 MEMB     138      CHL1     C8       CRL1    -0.900000E-01   12.0110           0
     17160 MEMB     138      CHL1     H8       HGA1     0.900000E-01   1.00800           0
     17161 MEMB     138      CHL1     C14      CRL1    -0.900000E-01   12.0110           0
     17162 MEMB     138      CHL1     H14      HGA1     0.900000E-01   1.00800           0
     17163 MEMB     138      CHL1     C15      CRL2    -0.180000       12.0110           0
     17164 MEMB     138      CHL1     H15A     HGA2     0.900000E-01   1.00800           0
     17165 MEMB     138      CHL1     H15B     HGA2     0.900000E-01   1.00800           0
     17166 MEMB     138      CHL1     C16      CRL2    -0.180000       12.0110           0
     17167 MEMB     138      CHL1     H16A     HGA2     0.900000E-01   1.00800           0
     17168 MEMB     138      CHL1     H16B     HGA2     0.900000E-01   1.00800           0
     17169 MEMB     138      CHL1     C17      CRL1    -0.900000E-01   12.0110           0
     17170 MEMB     138      CHL1     H17      HGA1     0.900000E-01   1.00800           0
     17171 MEMB     138      CHL1     C13      CRL1      0.00000       12.0110           0
     17172 MEMB     138      CHL1     C18      CTL3    -0.270000       12.0110           0
     17173 MEMB     138      CHL1     H18A     HAL3     0.900000E-01   1.00800           0
     17174 MEMB     138      CHL1     H18B     HAL3     0.900000E-01   1.00800           0
     17175 MEMB     138      CHL1     H18C     HAL3     0.900000E-01   1.00800           0
     17176 MEMB     138      CHL1     C12      CRL2    -0.180000       12.0110           0
     17177 MEMB     138      CHL1     H12A     HGA2     0.900000E-01   1.00800           0
     17178 MEMB     138      CHL1     H12B     HGA2     0.900000E-01   1.00800           0
     17179 MEMB     138      CHL1     C11      CRL2    -0.180000       12.0110           0
     17180 MEMB     138      CHL1     H11A     HGA2     0.900000E-01   1.00800           0
     17181 MEMB     138      CHL1     H11B     HGA2     0.900000E-01   1.00800           0
     17182 MEMB     138      CHL1     C9       CRL1    -0.900000E-01   12.0110           0
     17183 MEMB     138      CHL1     H9       HGA1     0.900000E-01   1.00800           0
     17184 MEMB     138      CHL1     C10      CRL1      0.00000       12.0110           0
     17185 MEMB     138      CHL1     C19      CTL3    -0.270000       12.0110           0
     17186 MEMB     138      CHL1     H19A     HAL3     0.900000E-01   1.00800           0
     17187 MEMB     138      CHL1     H19B     HAL3     0.900000E-01   1.00800           0
     17188 MEMB     138      CHL1     H19C     HAL3     0.900000E-01   1.00800           0
     17189 MEMB     138      CHL1     C1       CRL2    -0.180000       12.0110           0
     17190 MEMB     138      CHL1     H1A      HGA2     0.900000E-01   1.00800           0
     17191 MEMB     138      CHL1     H1B      HGA2     0.900000E-01   1.00800           0
     17192 MEMB     138      CHL1     C2       CRL2    -0.180000       12.0110           0
     17193 MEMB     138      CHL1     H2A      HGA2     0.900000E-01   1.00800           0
     17194 MEMB     138      CHL1     H2B      HGA2     0.900000E-01   1.00800           0
     17195 MEMB     138      CHL1     C20      CTL1    -0.900000E-01   12.0110           0
     17196 MEMB     138      CHL1     H20      HAL1     0.900000E-01   1.00800           0
     17197 MEMB     138      CHL1     C21      CTL3    -0.270000       12.0110           0
     17198 MEMB     138      CHL1     H21A     HAL3     0.900000E-01   1.00800           0
     17199 MEMB     138      CHL1     H21B     HAL3     0.900000E-01   1.00800           0
     17200 MEMB     138      CHL1     H21C     HAL3     0.900000E-01   1.00800           0
     17201 MEMB     138      CHL1     C22      CTL2    -0.180000       12.0110           0
     17202 MEMB     138      CHL1     H22A     HAL2     0.900000E-01   1.00800           0
     17203 MEMB     138      CHL1     H22B     HAL2     0.900000E-01   1.00800           0
     17204 MEMB     138      CHL1     C23      CTL2    -0.180000       12.0110           0
     17205 MEMB     138      CHL1     H23A     HAL2     0.900000E-01   1.00800           0
     17206 MEMB     138      CHL1     H23B     HAL2     0.900000E-01   1.00800           0
     17207 MEMB     138      CHL1     C24      CTL2    -0.180000       12.0110           0
     17208 MEMB     138      CHL1     H24A     HAL2     0.900000E-01   1.00800           0
     17209 MEMB     138      CHL1     H24B     HAL2     0.900000E-01   1.00800           0
     17210 MEMB     138      CHL1     C25      CTL1    -0.900000E-01   12.0110           0
     17211 MEMB     138      CHL1     H25      HAL1     0.900000E-01   1.00800           0
     17212 MEMB     138      CHL1     C26      CTL3    -0.270000       12.0110           0
     17213 MEMB     138      CHL1     H26A     HAL3     0.900000E-01   1.00800           0
     17214 MEMB     138      CHL1     H26B     HAL3     0.900000E-01   1.00800           0
     17215 MEMB     138      CHL1     H26C     HAL3     0.900000E-01   1.00800           0
     17216 MEMB     138      CHL1     C27      CTL3    -0.270000       12.0110           0
     17217 MEMB     138      CHL1     H27A     HAL3     0.900000E-01   1.00800           0
     17218 MEMB     138      CHL1     H27B     HAL3     0.900000E-01   1.00800           0
     17219 MEMB     138      CHL1     H27C     HAL3     0.900000E-01   1.00800           0
     17220 MEMB     139      23SM     N        NTL     -0.600000       14.0070           0
     17221 MEMB     139      23SM     C15      CTL5    -0.350000       12.0110           0
     17222 MEMB     139      23SM     H15A     HL       0.250000       1.00800           0
     17223 MEMB     139      23SM     H15B     HL       0.250000       1.00800           0
     17224 MEMB     139      23SM     H15C     HL       0.250000       1.00800           0
     17225 MEMB     139      23SM     C14      CTL5    -0.350000       12.0110           0
     17226 MEMB     139      23SM     H14A     HL       0.250000       1.00800           0
     17227 MEMB     139      23SM     H14B     HL       0.250000       1.00800           0
     17228 MEMB     139      23SM     H14C     HL       0.250000       1.00800           0
     17229 MEMB     139      23SM     C13      CTL5    -0.350000       12.0110           0
     17230 MEMB     139      23SM     H13A     HL       0.250000       1.00800           0
     17231 MEMB     139      23SM     H13B     HL       0.250000       1.00800           0
     17232 MEMB     139      23SM     H13C     HL       0.250000       1.00800           0
     17233 MEMB     139      23SM     C12      CTL2    -0.100000       12.0110           0
     17234 MEMB     139      23SM     H12A     HL       0.250000       1.00800           0
     17235 MEMB     139      23SM     H12B     HL       0.250000       1.00800           0
     17236 MEMB     139      23SM     C11      CTL2    -0.800000E-01   12.0110           0
     17237 MEMB     139      23SM     H11A     HAL2     0.900000E-01   1.00800           0
     17238 MEMB     139      23SM     H11B     HAL2     0.900000E-01   1.00800           0
     17239 MEMB     139      23SM     P        PL        1.50000       30.9740           0
     17240 MEMB     139      23SM     O13      O2L     -0.780000       15.9994           0
     17241 MEMB     139      23SM     O14      O2L     -0.780000       15.9994           0
     17242 MEMB     139      23SM     O11      OSLP    -0.570000       15.9994           0
     17243 MEMB     139      23SM     O12      OSLP    -0.570000       15.9994           0
     17244 MEMB     139      23SM     C1S      CTL2    -0.800000E-01   12.0110           0
     17245 MEMB     139      23SM     H1S      HAL2     0.900000E-01   1.00800           0
     17246 MEMB     139      23SM     H1T      HAL2     0.900000E-01   1.00800           0
     17247 MEMB     139      23SM     NF       NHL     -0.700000       14.0070           0
     17248 MEMB     139      23SM     HNF      H        0.350000       1.00800           0
     17249 MEMB     139      23SM     C2S      CTL1     0.300000       12.0110           0
     17250 MEMB     139      23SM     H2S      HAL1     0.500000E-01   1.00800           0
     17251 MEMB     139      23SM     C3S      CTO1     0.500000       12.0110           0
     17252 MEMB     139      23SM     H3S      HAL1    -0.110000       1.00800           0
     17253 MEMB     139      23SM     O3       OHL     -0.690000       15.9994           0
     17254 MEMB     139      23SM     HO3      HOL      0.300000       1.00800           0
     17255 MEMB     139      23SM     C4S      CEL3    -0.150000       12.0110           0
     17256 MEMB     139      23SM     H4S      HEL1     0.150000       1.00800           0
     17257 MEMB     139      23SM     C5S      CEL3    -0.150000       12.0110           0
     17258 MEMB     139      23SM     H5S      HEL1     0.150000       1.00800           0
     17259 MEMB     139      23SM     C6S      CTL2    -0.180000       12.0110           0
     17260 MEMB     139      23SM     H6S      HAL2     0.900000E-01   1.00800           0
     17261 MEMB     139      23SM     H6T      HAL2     0.900000E-01   1.00800           0
     17262 MEMB     139      23SM     C7S      CTL2    -0.180000       12.0110           0
     17263 MEMB     139      23SM     H7S      HAL2     0.900000E-01   1.00800           0
     17264 MEMB     139      23SM     H7T      HAL2     0.900000E-01   1.00800           0
     17265 MEMB     139      23SM     C8S      CTL2    -0.180000       12.0110           0
     17266 MEMB     139      23SM     H8S      HAL2     0.900000E-01   1.00800           0
     17267 MEMB     139      23SM     H8T      HAL2     0.900000E-01   1.00800           0
     17268 MEMB     139      23SM     C9S      CTL2    -0.180000       12.0110           0
     17269 MEMB     139      23SM     H9S      HAL2     0.900000E-01   1.00800           0
     17270 MEMB     139      23SM     H9T      HAL2     0.900000E-01   1.00800           0
     17271 MEMB     139      23SM     C10S     CTL2    -0.180000       12.0110           0
     17272 MEMB     139      23SM     H10S     HAL2     0.900000E-01   1.00800           0
     17273 MEMB     139      23SM     H10T     HAL2     0.900000E-01   1.00800           0
     17274 MEMB     139      23SM     C11S     CTL2    -0.180000       12.0110           0
     17275 MEMB     139      23SM     H11S     HAL2     0.900000E-01   1.00800           0
     17276 MEMB     139      23SM     H11T     HAL2     0.900000E-01   1.00800           0
     17277 MEMB     139      23SM     C12S     CTL2    -0.180000       12.0110           0
     17278 MEMB     139      23SM     H12S     HAL2     0.900000E-01   1.00800           0
     17279 MEMB     139      23SM     H12T     HAL2     0.900000E-01   1.00800           0
     17280 MEMB     139      23SM     C13S     CTL2    -0.180000       12.0110           0
     17281 MEMB     139      23SM     H13S     HAL2     0.900000E-01   1.00800           0
     17282 MEMB     139      23SM     H13T     HAL2     0.900000E-01   1.00800           0
     17283 MEMB     139      23SM     C14S     CTL2    -0.180000       12.0110           0
     17284 MEMB     139      23SM     H14S     HAL2     0.900000E-01   1.00800           0
     17285 MEMB     139      23SM     H14T     HAL2     0.900000E-01   1.00800           0
     17286 MEMB     139      23SM     C15S     CTL2    -0.180000       12.0110           0
     17287 MEMB     139      23SM     H15S     HAL2     0.900000E-01   1.00800           0
     17288 MEMB     139      23SM     H15T     HAL2     0.900000E-01   1.00800           0
     17289 MEMB     139      23SM     C16S     CTL2    -0.180000       12.0110           0
     17290 MEMB     139      23SM     H16S     HAL2     0.900000E-01   1.00800           0
     17291 MEMB     139      23SM     H16T     HAL2     0.900000E-01   1.00800           0
     17292 MEMB     139      23SM     C17S     CTL2    -0.180000       12.0110           0
     17293 MEMB     139      23SM     H17S     HAL2     0.900000E-01   1.00800           0
     17294 MEMB     139      23SM     H17T     HAL2     0.900000E-01   1.00800           0
     17295 MEMB     139      23SM     C18S     CTL3    -0.270000       12.0110           0
     17296 MEMB     139      23SM     H18S     HAL3     0.900000E-01   1.00800           0
     17297 MEMB     139      23SM     H18T     HAL3     0.900000E-01   1.00800           0
     17298 MEMB     139      23SM     H18U     HAL3     0.900000E-01   1.00800           0
     17299 MEMB     139      23SM     C1F      C        0.550000       12.0110           0
     17300 MEMB     139      23SM     OF       O       -0.600000       15.9994           0
     17301 MEMB     139      23SM     C2F      CTL2    -0.700000E-01   12.0110           0
     17302 MEMB     139      23SM     H2F      HAL2     0.600000E-01   1.00800           0
     17303 MEMB     139      23SM     H2G      HAL2     0.600000E-01   1.00800           0
     17304 MEMB     139      23SM     C3F      CTL2    -0.180000       12.0110           0
     17305 MEMB     139      23SM     H3F      HAL2     0.900000E-01   1.00800           0
     17306 MEMB     139      23SM     H3G      HAL2     0.900000E-01   1.00800           0
     17307 MEMB     139      23SM     C4F      CTL2    -0.180000       12.0110           0
     17308 MEMB     139      23SM     H4F      HAL2     0.900000E-01   1.00800           0
     17309 MEMB     139      23SM     H4G      HAL2     0.900000E-01   1.00800           0
     17310 MEMB     139      23SM     C5F      CTL2    -0.180000       12.0110           0
     17311 MEMB     139      23SM     H5F      HAL2     0.900000E-01   1.00800           0
     17312 MEMB     139      23SM     H5G      HAL2     0.900000E-01   1.00800           0
     17313 MEMB     139      23SM     C6F      CTL2    -0.180000       12.0110           0
     17314 MEMB     139      23SM     H6F      HAL2     0.900000E-01   1.00800           0
     17315 MEMB     139      23SM     H6G      HAL2     0.900000E-01   1.00800           0
     17316 MEMB     139      23SM     C7F      CTL2    -0.180000       12.0110           0
     17317 MEMB     139      23SM     H7F      HAL2     0.900000E-01   1.00800           0
     17318 MEMB     139      23SM     H7G      HAL2     0.900000E-01   1.00800           0
     17319 MEMB     139      23SM     C8F      CTL2    -0.180000       12.0110           0
     17320 MEMB     139      23SM     H8F      HAL2     0.900000E-01   1.00800           0
     17321 MEMB     139      23SM     H8G      HAL2     0.900000E-01   1.00800           0
     17322 MEMB     139      23SM     C9F      CTL2    -0.180000       12.0110           0
     17323 MEMB     139      23SM     H9F      HAL2     0.900000E-01   1.00800           0
     17324 MEMB     139      23SM     H9G      HAL2     0.900000E-01   1.00800           0
     17325 MEMB     139      23SM     C10F     CTL2    -0.180000       12.0110           0
     17326 MEMB     139      23SM     H10F     HAL2     0.900000E-01   1.00800           0
     17327 MEMB     139      23SM     H10G     HAL2     0.900000E-01   1.00800           0
     17328 MEMB     139      23SM     C11F     CTL2    -0.180000       12.0110           0
     17329 MEMB     139      23SM     H11F     HAL2     0.900000E-01   1.00800           0
     17330 MEMB     139      23SM     H11G     HAL2     0.900000E-01   1.00800           0
     17331 MEMB     139      23SM     C12F     CTL2    -0.180000       12.0110           0
     17332 MEMB     139      23SM     H12F     HAL2     0.900000E-01   1.00800           0
     17333 MEMB     139      23SM     H12G     HAL2     0.900000E-01   1.00800           0
     17334 MEMB     139      23SM     C13F     CTL2    -0.180000       12.0110           0
     17335 MEMB     139      23SM     H13F     HAL2     0.900000E-01   1.00800           0
     17336 MEMB     139      23SM     H13G     HAL2     0.900000E-01   1.00800           0
     17337 MEMB     139      23SM     C14F     CTL2    -0.180000       12.0110           0
     17338 MEMB     139      23SM     H14F     HAL2     0.900000E-01   1.00800           0
     17339 MEMB     139      23SM     H14G     HAL2     0.900000E-01   1.00800           0
     17340 MEMB     139      23SM     C15F     CTL2    -0.180000       12.0110           0
     17341 MEMB     139      23SM     H15F     HAL2     0.900000E-01   1.00800           0
     17342 MEMB     139      23SM     H15G     HAL2     0.900000E-01   1.00800           0
     17343 MEMB     139      23SM     C16F     CTL2    -0.180000       12.0110           0
     17344 MEMB     139      23SM     H16F     HAL2     0.900000E-01   1.00800           0
     17345 MEMB     139      23SM     H16G     HAL2     0.900000E-01   1.00800           0
     17346 MEMB     139      23SM     C17F     CTL2    -0.180000       12.0110           0
     17347 MEMB     139      23SM     H17F     HAL2     0.900000E-01   1.00800           0
     17348 MEMB     139      23SM     H17G     HAL2     0.900000E-01   1.00800           0
     17349 MEMB     139      23SM     C18F     CTL2    -0.180000       12.0110           0
     17350 MEMB     139      23SM     H18F     HAL2     0.900000E-01   1.00800           0
     17351 MEMB     139      23SM     H18G     HAL2     0.900000E-01   1.00800           0
     17352 MEMB     139      23SM     C19F     CTL2    -0.180000       12.0110           0
     17353 MEMB     139      23SM     H19F     HAL2     0.900000E-01   1.00800           0
     17354 MEMB     139      23SM     H19G     HAL2     0.900000E-01   1.00800           0
     17355 MEMB     139      23SM     C20F     CTL2    -0.180000       12.0110           0
     17356 MEMB     139      23SM     H20F     HAL2     0.900000E-01   1.00800           0
     17357 MEMB     139      23SM     H20G     HAL2     0.900000E-01   1.00800           0
     17358 MEMB     139      23SM     C21F     CTL2    -0.180000       12.0110           0
     17359 MEMB     139      23SM     H21F     HAL2     0.900000E-01   1.00800           0
     17360 MEMB     139      23SM     H21G     HAL2     0.900000E-01   1.00800           0
     17361 MEMB     139      23SM     C22F     CTL2    -0.180000       12.0110           0
     17362 MEMB     139      23SM     H22F     HAL2     0.900000E-01   1.00800           0
     17363 MEMB     139      23SM     H22G     HAL2     0.900000E-01   1.00800           0
     17364 MEMB     139      23SM     C23F     CTL3    -0.270000       12.0110           0
     17365 MEMB     139      23SM     H23F     HAL3     0.900000E-01   1.00800           0
     17366 MEMB     139      23SM     H23G     HAL3     0.900000E-01   1.00800           0
     17367 MEMB     139      23SM     H23H     HAL3     0.900000E-01   1.00800           0
     17368 MEMB     140      DOPC     N        NTL     -0.600000       14.0070           0
     17369 MEMB     140      DOPC     C12      CTL2    -0.100000       12.0110           0
     17370 MEMB     140      DOPC     H12A     HL       0.250000       1.00800           0
     17371 MEMB     140      DOPC     H12B     HL       0.250000       1.00800           0
     17372 MEMB     140      DOPC     C13      CTL5    -0.350000       12.0110           0
     17373 MEMB     140      DOPC     H13A     HL       0.250000       1.00800           0
     17374 MEMB     140      DOPC     H13B     HL       0.250000       1.00800           0
     17375 MEMB     140      DOPC     H13C     HL       0.250000       1.00800           0
     17376 MEMB     140      DOPC     C14      CTL5    -0.350000       12.0110           0
     17377 MEMB     140      DOPC     H14A     HL       0.250000       1.00800           0
     17378 MEMB     140      DOPC     H14B     HL       0.250000       1.00800           0
     17379 MEMB     140      DOPC     H14C     HL       0.250000       1.00800           0
     17380 MEMB     140      DOPC     C15      CTL5    -0.350000       12.0110           0
     17381 MEMB     140      DOPC     H15A     HL       0.250000       1.00800           0
     17382 MEMB     140      DOPC     H15B     HL       0.250000       1.00800           0
     17383 MEMB     140      DOPC     H15C     HL       0.250000       1.00800           0
     17384 MEMB     140      DOPC     C11      CTL2    -0.800000E-01   12.0110           0
     17385 MEMB     140      DOPC     H11A     HAL2     0.900000E-01   1.00800           0
     17386 MEMB     140      DOPC     H11B     HAL2     0.900000E-01   1.00800           0
     17387 MEMB     140      DOPC     P        PL        1.50000       30.9740           0
     17388 MEMB     140      DOPC     O13      O2L     -0.780000       15.9994           0
     17389 MEMB     140      DOPC     O14      O2L     -0.780000       15.9994           0
     17390 MEMB     140      DOPC     O12      OSLP    -0.570000       15.9994           0
     17391 MEMB     140      DOPC     O11      OSLP    -0.570000       15.9994           0
     17392 MEMB     140      DOPC     C1       CTL2    -0.800000E-01   12.0110           0
     17393 MEMB     140      DOPC     HA       HAL2     0.900000E-01   1.00800           0
     17394 MEMB     140      DOPC     HB       HAL2     0.900000E-01   1.00800           0
     17395 MEMB     140      DOPC     C2       CTL1     0.170000       12.0110           0
     17396 MEMB     140      DOPC     HS       HAL1     0.900000E-01   1.00800           0
     17397 MEMB     140      DOPC     O21      OSL     -0.490000       15.9994           0
     17398 MEMB     140      DOPC     C21      CL       0.900000       12.0110           0
     17399 MEMB     140      DOPC     O22      OBL     -0.630000       15.9994           0
     17400 MEMB     140      DOPC     C22      CTL2    -0.220000       12.0110           0
     17401 MEMB     140      DOPC     H2R      HAL2     0.900000E-01   1.00800           0
     17402 MEMB     140      DOPC     H2S      HAL2     0.900000E-01   1.00800           0
     17403 MEMB     140      DOPC     C3       CTL2     0.800000E-01   12.0110           0
     17404 MEMB     140      DOPC     HX       HAL2     0.900000E-01   1.00800           0
     17405 MEMB     140      DOPC     HY       HAL2     0.900000E-01   1.00800           0
     17406 MEMB     140      DOPC     O31      OSL     -0.490000       15.9994           0
     17407 MEMB     140      DOPC     C31      CL       0.900000       12.0110           0
     17408 MEMB     140      DOPC     O32      OBL     -0.630000       15.9994           0
     17409 MEMB     140      DOPC     C32      CTL2    -0.220000       12.0110           0
     17410 MEMB     140      DOPC     H2X      HAL2     0.900000E-01   1.00800           0
     17411 MEMB     140      DOPC     H2Y      HAL2     0.900000E-01   1.00800           0
     17412 MEMB     140      DOPC     C23      CTL2    -0.180000       12.0110           0
     17413 MEMB     140      DOPC     H3R      HAL2     0.900000E-01   1.00800           0
     17414 MEMB     140      DOPC     H3S      HAL2     0.900000E-01   1.00800           0
     17415 MEMB     140      DOPC     C24      CTL2    -0.180000       12.0110           0
     17416 MEMB     140      DOPC     H4R      HAL2     0.900000E-01   1.00800           0
     17417 MEMB     140      DOPC     H4S      HAL2     0.900000E-01   1.00800           0
     17418 MEMB     140      DOPC     C25      CTL2    -0.180000       12.0110           0
     17419 MEMB     140      DOPC     H5R      HAL2     0.900000E-01   1.00800           0
     17420 MEMB     140      DOPC     H5S      HAL2     0.900000E-01   1.00800           0
     17421 MEMB     140      DOPC     C26      CTL2    -0.180000       12.0110           0
     17422 MEMB     140      DOPC     H6R      HAL2     0.900000E-01   1.00800           0
     17423 MEMB     140      DOPC     H6S      HAL2     0.900000E-01   1.00800           0
     17424 MEMB     140      DOPC     C27      CTL2    -0.180000       12.0110           0
     17425 MEMB     140      DOPC     H7R      HAL2     0.900000E-01   1.00800           0
     17426 MEMB     140      DOPC     H7S      HAL2     0.900000E-01   1.00800           0
     17427 MEMB     140      DOPC     C28      CTL2    -0.180000       12.0110           0
     17428 MEMB     140      DOPC     H8R      HAL2     0.900000E-01   1.00800           0
     17429 MEMB     140      DOPC     H8S      HAL2     0.900000E-01   1.00800           0
     17430 MEMB     140      DOPC     C29      CEL1    -0.150000       12.0110           0
     17431 MEMB     140      DOPC     H9R      HEL1     0.150000       1.00800           0
     17432 MEMB     140      DOPC     C210     CEL1    -0.150000       12.0110           0
     17433 MEMB     140      DOPC     H10R     HEL1     0.150000       1.00800           0
     17434 MEMB     140      DOPC     C211     CTL2    -0.180000       12.0110           0
     17435 MEMB     140      DOPC     H11R     HAL2     0.900000E-01   1.00800           0
     17436 MEMB     140      DOPC     H11S     HAL2     0.900000E-01   1.00800           0
     17437 MEMB     140      DOPC     C212     CTL2    -0.180000       12.0110           0
     17438 MEMB     140      DOPC     H12R     HAL2     0.900000E-01   1.00800           0
     17439 MEMB     140      DOPC     H12S     HAL2     0.900000E-01   1.00800           0
     17440 MEMB     140      DOPC     C213     CTL2    -0.180000       12.0110           0
     17441 MEMB     140      DOPC     H13R     HAL2     0.900000E-01   1.00800           0
     17442 MEMB     140      DOPC     H13S     HAL2     0.900000E-01   1.00800           0
     17443 MEMB     140      DOPC     C214     CTL2    -0.180000       12.0110           0
     17444 MEMB     140      DOPC     H14R     HAL2     0.900000E-01   1.00800           0
     17445 MEMB     140      DOPC     H14S     HAL2     0.900000E-01   1.00800           0
     17446 MEMB     140      DOPC     C215     CTL2    -0.180000       12.0110           0
     17447 MEMB     140      DOPC     H15R     HAL2     0.900000E-01   1.00800           0
     17448 MEMB     140      DOPC     H15S     HAL2     0.900000E-01   1.00800           0
     17449 MEMB     140      DOPC     C216     CTL2    -0.180000       12.0110           0
     17450 MEMB     140      DOPC     H16R     HAL2     0.900000E-01   1.00800           0
     17451 MEMB     140      DOPC     H16S     HAL2     0.900000E-01   1.00800           0
     17452 MEMB     140      DOPC     C217     CTL2    -0.180000       12.0110           0
     17453 MEMB     140      DOPC     H17R     HAL2     0.900000E-01   1.00800           0
     17454 MEMB     140      DOPC     H17S     HAL2     0.900000E-01   1.00800           0
     17455 MEMB     140      DOPC     C218     CTL3    -0.270000       12.0110           0
     17456 MEMB     140      DOPC     H18R     HAL3     0.900000E-01   1.00800           0
     17457 MEMB     140      DOPC     H18S     HAL3     0.900000E-01   1.00800           0
     17458 MEMB     140      DOPC     H18T     HAL3     0.900000E-01   1.00800           0
     17459 MEMB     140      DOPC     C33      CTL2    -0.180000       12.0110           0
     17460 MEMB     140      DOPC     H3X      HAL2     0.900000E-01   1.00800           0
     17461 MEMB     140      DOPC     H3Y      HAL2     0.900000E-01   1.00800           0
     17462 MEMB     140      DOPC     C34      CTL2    -0.180000       12.0110           0
     17463 MEMB     140      DOPC     H4X      HAL2     0.900000E-01   1.00800           0
     17464 MEMB     140      DOPC     H4Y      HAL2     0.900000E-01   1.00800           0
     17465 MEMB     140      DOPC     C35      CTL2    -0.180000       12.0110           0
     17466 MEMB     140      DOPC     H5X      HAL2     0.900000E-01   1.00800           0
     17467 MEMB     140      DOPC     H5Y      HAL2     0.900000E-01   1.00800           0
     17468 MEMB     140      DOPC     C36      CTL2    -0.180000       12.0110           0
     17469 MEMB     140      DOPC     H6X      HAL2     0.900000E-01   1.00800           0
     17470 MEMB     140      DOPC     H6Y      HAL2     0.900000E-01   1.00800           0
     17471 MEMB     140      DOPC     C37      CTL2    -0.180000       12.0110           0
     17472 MEMB     140      DOPC     H7X      HAL2     0.900000E-01   1.00800           0
     17473 MEMB     140      DOPC     H7Y      HAL2     0.900000E-01   1.00800           0
     17474 MEMB     140      DOPC     C38      CTL2    -0.180000       12.0110           0
     17475 MEMB     140      DOPC     H8X      HAL2     0.900000E-01   1.00800           0
     17476 MEMB     140      DOPC     H8Y      HAL2     0.900000E-01   1.00800           0
     17477 MEMB     140      DOPC     C39      CEL1    -0.150000       12.0110           0
     17478 MEMB     140      DOPC     H9X      HEL1     0.150000       1.00800           0
     17479 MEMB     140      DOPC     C310     CEL1    -0.150000       12.0110           0
     17480 MEMB     140      DOPC     H10X     HEL1     0.150000       1.00800           0
     17481 MEMB     140      DOPC     C311     CTL2    -0.180000       12.0110           0
     17482 MEMB     140      DOPC     H11X     HAL2     0.900000E-01   1.00800           0
     17483 MEMB     140      DOPC     H11Y     HAL2     0.900000E-01   1.00800           0
     17484 MEMB     140      DOPC     C312     CTL2    -0.180000       12.0110           0
     17485 MEMB     140      DOPC     H12X     HAL2     0.900000E-01   1.00800           0
     17486 MEMB     140      DOPC     H12Y     HAL2     0.900000E-01   1.00800           0
     17487 MEMB     140      DOPC     C313     CTL2    -0.180000       12.0110           0
     17488 MEMB     140      DOPC     H13X     HAL2     0.900000E-01   1.00800           0
     17489 MEMB     140      DOPC     H13Y     HAL2     0.900000E-01   1.00800           0
     17490 MEMB     140      DOPC     C314     CTL2    -0.180000       12.0110           0
     17491 MEMB     140      DOPC     H14X     HAL2     0.900000E-01   1.00800           0
     17492 MEMB     140      DOPC     H14Y     HAL2     0.900000E-01   1.00800           0
     17493 MEMB     140      DOPC     C315     CTL2    -0.180000       12.0110           0
     17494 MEMB     140      DOPC     H15X     HAL2     0.900000E-01   1.00800           0
     17495 MEMB     140      DOPC     H15Y     HAL2     0.900000E-01   1.00800           0
     17496 MEMB     140      DOPC     C316     CTL2    -0.180000       12.0110           0
     17497 MEMB     140      DOPC     H16X     HAL2     0.900000E-01   1.00800           0
     17498 MEMB     140      DOPC     H16Y     HAL2     0.900000E-01   1.00800           0
     17499 MEMB     140      DOPC     C317     CTL2    -0.180000       12.0110           0
     17500 MEMB     140      DOPC     H17X     HAL2     0.900000E-01   1.00800           0
     17501 MEMB     140      DOPC     H17Y     HAL2     0.900000E-01   1.00800           0
     17502 MEMB     140      DOPC     C318     CTL3    -0.270000       12.0110           0
     17503 MEMB     140      DOPC     H18X     HAL3     0.900000E-01   1.00800           0
     17504 MEMB     140      DOPC     H18Y     HAL3     0.900000E-01   1.00800           0
     17505 MEMB     140      DOPC     H18Z     HAL3     0.900000E-01   1.00800           0
     17506 MEMB     141      23SM     N        NTL     -0.600000       14.0070           0
     17507 MEMB     141      23SM     C15      CTL5    -0.350000       12.0110           0
     17508 MEMB     141      23SM     H15A     HL       0.250000       1.00800           0
     17509 MEMB     141      23SM     H15B     HL       0.250000       1.00800           0
     17510 MEMB     141      23SM     H15C     HL       0.250000       1.00800           0
     17511 MEMB     141      23SM     C14      CTL5    -0.350000       12.0110           0
     17512 MEMB     141      23SM     H14A     HL       0.250000       1.00800           0
     17513 MEMB     141      23SM     H14B     HL       0.250000       1.00800           0
     17514 MEMB     141      23SM     H14C     HL       0.250000       1.00800           0
     17515 MEMB     141      23SM     C13      CTL5    -0.350000       12.0110           0
     17516 MEMB     141      23SM     H13A     HL       0.250000       1.00800           0
     17517 MEMB     141      23SM     H13B     HL       0.250000       1.00800           0
     17518 MEMB     141      23SM     H13C     HL       0.250000       1.00800           0
     17519 MEMB     141      23SM     C12      CTL2    -0.100000       12.0110           0
     17520 MEMB     141      23SM     H12A     HL       0.250000       1.00800           0
     17521 MEMB     141      23SM     H12B     HL       0.250000       1.00800           0
     17522 MEMB     141      23SM     C11      CTL2    -0.800000E-01   12.0110           0
     17523 MEMB     141      23SM     H11A     HAL2     0.900000E-01   1.00800           0
     17524 MEMB     141      23SM     H11B     HAL2     0.900000E-01   1.00800           0
     17525 MEMB     141      23SM     P        PL        1.50000       30.9740           0
     17526 MEMB     141      23SM     O13      O2L     -0.780000       15.9994           0
     17527 MEMB     141      23SM     O14      O2L     -0.780000       15.9994           0
     17528 MEMB     141      23SM     O11      OSLP    -0.570000       15.9994           0
     17529 MEMB     141      23SM     O12      OSLP    -0.570000       15.9994           0
     17530 MEMB     141      23SM     C1S      CTL2    -0.800000E-01   12.0110           0
     17531 MEMB     141      23SM     H1S      HAL2     0.900000E-01   1.00800           0
     17532 MEMB     141      23SM     H1T      HAL2     0.900000E-01   1.00800           0
     17533 MEMB     141      23SM     NF       NHL     -0.700000       14.0070           0
     17534 MEMB     141      23SM     HNF      H        0.350000       1.00800           0
     17535 MEMB     141      23SM     C2S      CTL1     0.300000       12.0110           0
     17536 MEMB     141      23SM     H2S      HAL1     0.500000E-01   1.00800           0
     17537 MEMB     141      23SM     C3S      CTO1     0.500000       12.0110           0
     17538 MEMB     141      23SM     H3S      HAL1    -0.110000       1.00800           0
     17539 MEMB     141      23SM     O3       OHL     -0.690000       15.9994           0
     17540 MEMB     141      23SM     HO3      HOL      0.300000       1.00800           0
     17541 MEMB     141      23SM     C4S      CEL3    -0.150000       12.0110           0
     17542 MEMB     141      23SM     H4S      HEL1     0.150000       1.00800           0
     17543 MEMB     141      23SM     C5S      CEL3    -0.150000       12.0110           0
     17544 MEMB     141      23SM     H5S      HEL1     0.150000       1.00800           0
     17545 MEMB     141      23SM     C6S      CTL2    -0.180000       12.0110           0
     17546 MEMB     141      23SM     H6S      HAL2     0.900000E-01   1.00800           0
     17547 MEMB     141      23SM     H6T      HAL2     0.900000E-01   1.00800           0
     17548 MEMB     141      23SM     C7S      CTL2    -0.180000       12.0110           0
     17549 MEMB     141      23SM     H7S      HAL2     0.900000E-01   1.00800           0
     17550 MEMB     141      23SM     H7T      HAL2     0.900000E-01   1.00800           0
     17551 MEMB     141      23SM     C8S      CTL2    -0.180000       12.0110           0
     17552 MEMB     141      23SM     H8S      HAL2     0.900000E-01   1.00800           0
     17553 MEMB     141      23SM     H8T      HAL2     0.900000E-01   1.00800           0
     17554 MEMB     141      23SM     C9S      CTL2    -0.180000       12.0110           0
     17555 MEMB     141      23SM     H9S      HAL2     0.900000E-01   1.00800           0
     17556 MEMB     141      23SM     H9T      HAL2     0.900000E-01   1.00800           0
     17557 MEMB     141      23SM     C10S     CTL2    -0.180000       12.0110           0
     17558 MEMB     141      23SM     H10S     HAL2     0.900000E-01   1.00800           0
     17559 MEMB     141      23SM     H10T     HAL2     0.900000E-01   1.00800           0
     17560 MEMB     141      23SM     C11S     CTL2    -0.180000       12.0110           0
     17561 MEMB     141      23SM     H11S     HAL2     0.900000E-01   1.00800           0
     17562 MEMB     141      23SM     H11T     HAL2     0.900000E-01   1.00800           0
     17563 MEMB     141      23SM     C12S     CTL2    -0.180000       12.0110           0
     17564 MEMB     141      23SM     H12S     HAL2     0.900000E-01   1.00800           0
     17565 MEMB     141      23SM     H12T     HAL2     0.900000E-01   1.00800           0
     17566 MEMB     141      23SM     C13S     CTL2    -0.180000       12.0110           0
     17567 MEMB     141      23SM     H13S     HAL2     0.900000E-01   1.00800           0
     17568 MEMB     141      23SM     H13T     HAL2     0.900000E-01   1.00800           0
     17569 MEMB     141      23SM     C14S     CTL2    -0.180000       12.0110           0
     17570 MEMB     141      23SM     H14S     HAL2     0.900000E-01   1.00800           0
     17571 MEMB     141      23SM     H14T     HAL2     0.900000E-01   1.00800           0
     17572 MEMB     141      23SM     C15S     CTL2    -0.180000       12.0110           0
     17573 MEMB     141      23SM     H15S     HAL2     0.900000E-01   1.00800           0
     17574 MEMB     141      23SM     H15T     HAL2     0.900000E-01   1.00800           0
     17575 MEMB     141      23SM     C16S     CTL2    -0.180000       12.0110           0
     17576 MEMB     141      23SM     H16S     HAL2     0.900000E-01   1.00800           0
     17577 MEMB     141      23SM     H16T     HAL2     0.900000E-01   1.00800           0
     17578 MEMB     141      23SM     C17S     CTL2    -0.180000       12.0110           0
     17579 MEMB     141      23SM     H17S     HAL2     0.900000E-01   1.00800           0
     17580 MEMB     141      23SM     H17T     HAL2     0.900000E-01   1.00800           0
     17581 MEMB     141      23SM     C18S     CTL3    -0.270000       12.0110           0
     17582 MEMB     141      23SM     H18S     HAL3     0.900000E-01   1.00800           0
     17583 MEMB     141      23SM     H18T     HAL3     0.900000E-01   1.00800           0
     17584 MEMB     141      23SM     H18U     HAL3     0.900000E-01   1.00800           0
     17585 MEMB     141      23SM     C1F      C        0.550000       12.0110           0
     17586 MEMB     141      23SM     OF       O       -0.600000       15.9994           0
     17587 MEMB     141      23SM     C2F      CTL2    -0.700000E-01   12.0110           0
     17588 MEMB     141      23SM     H2F      HAL2     0.600000E-01   1.00800           0
     17589 MEMB     141      23SM     H2G      HAL2     0.600000E-01   1.00800           0
     17590 MEMB     141      23SM     C3F      CTL2    -0.180000       12.0110           0
     17591 MEMB     141      23SM     H3F      HAL2     0.900000E-01   1.00800           0
     17592 MEMB     141      23SM     H3G      HAL2     0.900000E-01   1.00800           0
     17593 MEMB     141      23SM     C4F      CTL2    -0.180000       12.0110           0
     17594 MEMB     141      23SM     H4F      HAL2     0.900000E-01   1.00800           0
     17595 MEMB     141      23SM     H4G      HAL2     0.900000E-01   1.00800           0
     17596 MEMB     141      23SM     C5F      CTL2    -0.180000       12.0110           0
     17597 MEMB     141      23SM     H5F      HAL2     0.900000E-01   1.00800           0
     17598 MEMB     141      23SM     H5G      HAL2     0.900000E-01   1.00800           0
     17599 MEMB     141      23SM     C6F      CTL2    -0.180000       12.0110           0
     17600 MEMB     141      23SM     H6F      HAL2     0.900000E-01   1.00800           0
     17601 MEMB     141      23SM     H6G      HAL2     0.900000E-01   1.00800           0
     17602 MEMB     141      23SM     C7F      CTL2    -0.180000       12.0110           0
     17603 MEMB     141      23SM     H7F      HAL2     0.900000E-01   1.00800           0
     17604 MEMB     141      23SM     H7G      HAL2     0.900000E-01   1.00800           0
     17605 MEMB     141      23SM     C8F      CTL2    -0.180000       12.0110           0
     17606 MEMB     141      23SM     H8F      HAL2     0.900000E-01   1.00800           0
     17607 MEMB     141      23SM     H8G      HAL2     0.900000E-01   1.00800           0
     17608 MEMB     141      23SM     C9F      CTL2    -0.180000       12.0110           0
     17609 MEMB     141      23SM     H9F      HAL2     0.900000E-01   1.00800           0
     17610 MEMB     141      23SM     H9G      HAL2     0.900000E-01   1.00800           0
     17611 MEMB     141      23SM     C10F     CTL2    -0.180000       12.0110           0
     17612 MEMB     141      23SM     H10F     HAL2     0.900000E-01   1.00800           0
     17613 MEMB     141      23SM     H10G     HAL2     0.900000E-01   1.00800           0
     17614 MEMB     141      23SM     C11F     CTL2    -0.180000       12.0110           0
     17615 MEMB     141      23SM     H11F     HAL2     0.900000E-01   1.00800           0
     17616 MEMB     141      23SM     H11G     HAL2     0.900000E-01   1.00800           0
     17617 MEMB     141      23SM     C12F     CTL2    -0.180000       12.0110           0
     17618 MEMB     141      23SM     H12F     HAL2     0.900000E-01   1.00800           0
     17619 MEMB     141      23SM     H12G     HAL2     0.900000E-01   1.00800           0
     17620 MEMB     141      23SM     C13F     CTL2    -0.180000       12.0110           0
     17621 MEMB     141      23SM     H13F     HAL2     0.900000E-01   1.00800           0
     17622 MEMB     141      23SM     H13G     HAL2     0.900000E-01   1.00800           0
     17623 MEMB     141      23SM     C14F     CTL2    -0.180000       12.0110           0
     17624 MEMB     141      23SM     H14F     HAL2     0.900000E-01   1.00800           0
     17625 MEMB     141      23SM     H14G     HAL2     0.900000E-01   1.00800           0
     17626 MEMB     141      23SM     C15F     CTL2    -0.180000       12.0110           0
     17627 MEMB     141      23SM     H15F     HAL2     0.900000E-01   1.00800           0
     17628 MEMB     141      23SM     H15G     HAL2     0.900000E-01   1.00800           0
     17629 MEMB     141      23SM     C16F     CTL2    -0.180000       12.0110           0
     17630 MEMB     141      23SM     H16F     HAL2     0.900000E-01   1.00800           0
     17631 MEMB     141      23SM     H16G     HAL2     0.900000E-01   1.00800           0
     17632 MEMB     141      23SM     C17F     CTL2    -0.180000       12.0110           0
     17633 MEMB     141      23SM     H17F     HAL2     0.900000E-01   1.00800           0
     17634 MEMB     141      23SM     H17G     HAL2     0.900000E-01   1.00800           0
     17635 MEMB     141      23SM     C18F     CTL2    -0.180000       12.0110           0
     17636 MEMB     141      23SM     H18F     HAL2     0.900000E-01   1.00800           0
     17637 MEMB     141      23SM     H18G     HAL2     0.900000E-01   1.00800           0
     17638 MEMB     141      23SM     C19F     CTL2    -0.180000       12.0110           0
     17639 MEMB     141      23SM     H19F     HAL2     0.900000E-01   1.00800           0
     17640 MEMB     141      23SM     H19G     HAL2     0.900000E-01   1.00800           0
     17641 MEMB     141      23SM     C20F     CTL2    -0.180000       12.0110           0
     17642 MEMB     141      23SM     H20F     HAL2     0.900000E-01   1.00800           0
     17643 MEMB     141      23SM     H20G     HAL2     0.900000E-01   1.00800           0
     17644 MEMB     141      23SM     C21F     CTL2    -0.180000       12.0110           0
     17645 MEMB     141      23SM     H21F     HAL2     0.900000E-01   1.00800           0
     17646 MEMB     141      23SM     H21G     HAL2     0.900000E-01   1.00800           0
     17647 MEMB     141      23SM     C22F     CTL2    -0.180000       12.0110           0
     17648 MEMB     141      23SM     H22F     HAL2     0.900000E-01   1.00800           0
     17649 MEMB     141      23SM     H22G     HAL2     0.900000E-01   1.00800           0
     17650 MEMB     141      23SM     C23F     CTL3    -0.270000       12.0110           0
     17651 MEMB     141      23SM     H23F     HAL3     0.900000E-01   1.00800           0
     17652 MEMB     141      23SM     H23G     HAL3     0.900000E-01   1.00800           0
     17653 MEMB     141      23SM     H23H     HAL3     0.900000E-01   1.00800           0
     17654 MEMB     142      CHL1     C3       CRL1     0.140000       12.0110           0
     17655 MEMB     142      CHL1     H3       HGA1     0.900000E-01   1.00800           0
     17656 MEMB     142      CHL1     O3       OHL     -0.660000       15.9994           0
     17657 MEMB     142      CHL1     H3'      HOL      0.430000       1.00800           0
     17658 MEMB     142      CHL1     C4       CRL2    -0.180000       12.0110           0
     17659 MEMB     142      CHL1     H4A      HGA2     0.900000E-01   1.00800           0
     17660 MEMB     142      CHL1     H4B      HGA2     0.900000E-01   1.00800           0
     17661 MEMB     142      CHL1     C5       CEL1      0.00000       12.0110           0
     17662 MEMB     142      CHL1     C6       CEL1    -0.150000       12.0110           0
     17663 MEMB     142      CHL1     H6       HEL1     0.150000       1.00800           0
     17664 MEMB     142      CHL1     C7       CRL2    -0.180000       12.0110           0
     17665 MEMB     142      CHL1     H7A      HGA2     0.900000E-01   1.00800           0
     17666 MEMB     142      CHL1     H7B      HGA2     0.900000E-01   1.00800           0
     17667 MEMB     142      CHL1     C8       CRL1    -0.900000E-01   12.0110           0
     17668 MEMB     142      CHL1     H8       HGA1     0.900000E-01   1.00800           0
     17669 MEMB     142      CHL1     C14      CRL1    -0.900000E-01   12.0110           0
     17670 MEMB     142      CHL1     H14      HGA1     0.900000E-01   1.00800           0
     17671 MEMB     142      CHL1     C15      CRL2    -0.180000       12.0110           0
     17672 MEMB     142      CHL1     H15A     HGA2     0.900000E-01   1.00800           0
     17673 MEMB     142      CHL1     H15B     HGA2     0.900000E-01   1.00800           0
     17674 MEMB     142      CHL1     C16      CRL2    -0.180000       12.0110           0
     17675 MEMB     142      CHL1     H16A     HGA2     0.900000E-01   1.00800           0
     17676 MEMB     142      CHL1     H16B     HGA2     0.900000E-01   1.00800           0
     17677 MEMB     142      CHL1     C17      CRL1    -0.900000E-01   12.0110           0
     17678 MEMB     142      CHL1     H17      HGA1     0.900000E-01   1.00800           0
     17679 MEMB     142      CHL1     C13      CRL1      0.00000       12.0110           0
     17680 MEMB     142      CHL1     C18      CTL3    -0.270000       12.0110           0
     17681 MEMB     142      CHL1     H18A     HAL3     0.900000E-01   1.00800           0
     17682 MEMB     142      CHL1     H18B     HAL3     0.900000E-01   1.00800           0
     17683 MEMB     142      CHL1     H18C     HAL3     0.900000E-01   1.00800           0
     17684 MEMB     142      CHL1     C12      CRL2    -0.180000       12.0110           0
     17685 MEMB     142      CHL1     H12A     HGA2     0.900000E-01   1.00800           0
     17686 MEMB     142      CHL1     H12B     HGA2     0.900000E-01   1.00800           0
     17687 MEMB     142      CHL1     C11      CRL2    -0.180000       12.0110           0
     17688 MEMB     142      CHL1     H11A     HGA2     0.900000E-01   1.00800           0
     17689 MEMB     142      CHL1     H11B     HGA2     0.900000E-01   1.00800           0
     17690 MEMB     142      CHL1     C9       CRL1    -0.900000E-01   12.0110           0
     17691 MEMB     142      CHL1     H9       HGA1     0.900000E-01   1.00800           0
     17692 MEMB     142      CHL1     C10      CRL1      0.00000       12.0110           0
     17693 MEMB     142      CHL1     C19      CTL3    -0.270000       12.0110           0
     17694 MEMB     142      CHL1     H19A     HAL3     0.900000E-01   1.00800           0
     17695 MEMB     142      CHL1     H19B     HAL3     0.900000E-01   1.00800           0
     17696 MEMB     142      CHL1     H19C     HAL3     0.900000E-01   1.00800           0
     17697 MEMB     142      CHL1     C1       CRL2    -0.180000       12.0110           0
     17698 MEMB     142      CHL1     H1A      HGA2     0.900000E-01   1.00800           0
     17699 MEMB     142      CHL1     H1B      HGA2     0.900000E-01   1.00800           0
     17700 MEMB     142      CHL1     C2       CRL2    -0.180000       12.0110           0
     17701 MEMB     142      CHL1     H2A      HGA2     0.900000E-01   1.00800           0
     17702 MEMB     142      CHL1     H2B      HGA2     0.900000E-01   1.00800           0
     17703 MEMB     142      CHL1     C20      CTL1    -0.900000E-01   12.0110           0
     17704 MEMB     142      CHL1     H20      HAL1     0.900000E-01   1.00800           0
     17705 MEMB     142      CHL1     C21      CTL3    -0.270000       12.0110           0
     17706 MEMB     142      CHL1     H21A     HAL3     0.900000E-01   1.00800           0
     17707 MEMB     142      CHL1     H21B     HAL3     0.900000E-01   1.00800           0
     17708 MEMB     142      CHL1     H21C     HAL3     0.900000E-01   1.00800           0
     17709 MEMB     142      CHL1     C22      CTL2    -0.180000       12.0110           0
     17710 MEMB     142      CHL1     H22A     HAL2     0.900000E-01   1.00800           0
     17711 MEMB     142      CHL1     H22B     HAL2     0.900000E-01   1.00800           0
     17712 MEMB     142      CHL1     C23      CTL2    -0.180000       12.0110           0
     17713 MEMB     142      CHL1     H23A     HAL2     0.900000E-01   1.00800           0
     17714 MEMB     142      CHL1     H23B     HAL2     0.900000E-01   1.00800           0
     17715 MEMB     142      CHL1     C24      CTL2    -0.180000       12.0110           0
     17716 MEMB     142      CHL1     H24A     HAL2     0.900000E-01   1.00800           0
     17717 MEMB     142      CHL1     H24B     HAL2     0.900000E-01   1.00800           0
     17718 MEMB     142      CHL1     C25      CTL1    -0.900000E-01   12.0110           0
     17719 MEMB     142      CHL1     H25      HAL1     0.900000E-01   1.00800           0
     17720 MEMB     142      CHL1     C26      CTL3    -0.270000       12.0110           0
     17721 MEMB     142      CHL1     H26A     HAL3     0.900000E-01   1.00800           0
     17722 MEMB     142      CHL1     H26B     HAL3     0.900000E-01   1.00800           0
     17723 MEMB     142      CHL1     H26C     HAL3     0.900000E-01   1.00800           0
     17724 MEMB     142      CHL1     C27      CTL3    -0.270000       12.0110           0
     17725 MEMB     142      CHL1     H27A     HAL3     0.900000E-01   1.00800           0
     17726 MEMB     142      CHL1     H27B     HAL3     0.900000E-01   1.00800           0
     17727 MEMB     142      CHL1     H27C     HAL3     0.900000E-01   1.00800           0
     17728 MEMB     143      CHL1     C3       CRL1     0.140000       12.0110           0
     17729 MEMB     143      CHL1     H3       HGA1     0.900000E-01   1.00800           0
     17730 MEMB     143      CHL1     O3       OHL     -0.660000       15.9994           0
     17731 MEMB     143      CHL1     H3'      HOL      0.430000       1.00800           0
     17732 MEMB     143      CHL1     C4       CRL2    -0.180000       12.0110           0
     17733 MEMB     143      CHL1     H4A      HGA2     0.900000E-01   1.00800           0
     17734 MEMB     143      CHL1     H4B      HGA2     0.900000E-01   1.00800           0
     17735 MEMB     143      CHL1     C5       CEL1      0.00000       12.0110           0
     17736 MEMB     143      CHL1     C6       CEL1    -0.150000       12.0110           0
     17737 MEMB     143      CHL1     H6       HEL1     0.150000       1.00800           0
     17738 MEMB     143      CHL1     C7       CRL2    -0.180000       12.0110           0
     17739 MEMB     143      CHL1     H7A      HGA2     0.900000E-01   1.00800           0
     17740 MEMB     143      CHL1     H7B      HGA2     0.900000E-01   1.00800           0
     17741 MEMB     143      CHL1     C8       CRL1    -0.900000E-01   12.0110           0
     17742 MEMB     143      CHL1     H8       HGA1     0.900000E-01   1.00800           0
     17743 MEMB     143      CHL1     C14      CRL1    -0.900000E-01   12.0110           0
     17744 MEMB     143      CHL1     H14      HGA1     0.900000E-01   1.00800           0
     17745 MEMB     143      CHL1     C15      CRL2    -0.180000       12.0110           0
     17746 MEMB     143      CHL1     H15A     HGA2     0.900000E-01   1.00800           0
     17747 MEMB     143      CHL1     H15B     HGA2     0.900000E-01   1.00800           0
     17748 MEMB     143      CHL1     C16      CRL2    -0.180000       12.0110           0
     17749 MEMB     143      CHL1     H16A     HGA2     0.900000E-01   1.00800           0
     17750 MEMB     143      CHL1     H16B     HGA2     0.900000E-01   1.00800           0
     17751 MEMB     143      CHL1     C17      CRL1    -0.900000E-01   12.0110           0
     17752 MEMB     143      CHL1     H17      HGA1     0.900000E-01   1.00800           0
     17753 MEMB     143      CHL1     C13      CRL1      0.00000       12.0110           0
     17754 MEMB     143      CHL1     C18      CTL3    -0.270000       12.0110           0
     17755 MEMB     143      CHL1     H18A     HAL3     0.900000E-01   1.00800           0
     17756 MEMB     143      CHL1     H18B     HAL3     0.900000E-01   1.00800           0
     17757 MEMB     143      CHL1     H18C     HAL3     0.900000E-01   1.00800           0
     17758 MEMB     143      CHL1     C12      CRL2    -0.180000       12.0110           0
     17759 MEMB     143      CHL1     H12A     HGA2     0.900000E-01   1.00800           0
     17760 MEMB     143      CHL1     H12B     HGA2     0.900000E-01   1.00800           0
     17761 MEMB     143      CHL1     C11      CRL2    -0.180000       12.0110           0
     17762 MEMB     143      CHL1     H11A     HGA2     0.900000E-01   1.00800           0
     17763 MEMB     143      CHL1     H11B     HGA2     0.900000E-01   1.00800           0
     17764 MEMB     143      CHL1     C9       CRL1    -0.900000E-01   12.0110           0
     17765 MEMB     143      CHL1     H9       HGA1     0.900000E-01   1.00800           0
     17766 MEMB     143      CHL1     C10      CRL1      0.00000       12.0110           0
     17767 MEMB     143      CHL1     C19      CTL3    -0.270000       12.0110           0
     17768 MEMB     143      CHL1     H19A     HAL3     0.900000E-01   1.00800           0
     17769 MEMB     143      CHL1     H19B     HAL3     0.900000E-01   1.00800           0
     17770 MEMB     143      CHL1     H19C     HAL3     0.900000E-01   1.00800           0
     17771 MEMB     143      CHL1     C1       CRL2    -0.180000       12.0110           0
     17772 MEMB     143      CHL1     H1A      HGA2     0.900000E-01   1.00800           0
     17773 MEMB     143      CHL1     H1B      HGA2     0.900000E-01   1.00800           0
     17774 MEMB     143      CHL1     C2       CRL2    -0.180000       12.0110           0
     17775 MEMB     143      CHL1     H2A      HGA2     0.900000E-01   1.00800           0
     17776 MEMB     143      CHL1     H2B      HGA2     0.900000E-01   1.00800           0
     17777 MEMB     143      CHL1     C20      CTL1    -0.900000E-01   12.0110           0
     17778 MEMB     143      CHL1     H20      HAL1     0.900000E-01   1.00800           0
     17779 MEMB     143      CHL1     C21      CTL3    -0.270000       12.0110           0
     17780 MEMB     143      CHL1     H21A     HAL3     0.900000E-01   1.00800           0
     17781 MEMB     143      CHL1     H21B     HAL3     0.900000E-01   1.00800           0
     17782 MEMB     143      CHL1     H21C     HAL3     0.900000E-01   1.00800           0
     17783 MEMB     143      CHL1     C22      CTL2    -0.180000       12.0110           0
     17784 MEMB     143      CHL1     H22A     HAL2     0.900000E-01   1.00800           0
     17785 MEMB     143      CHL1     H22B     HAL2     0.900000E-01   1.00800           0
     17786 MEMB     143      CHL1     C23      CTL2    -0.180000       12.0110           0
     17787 MEMB     143      CHL1     H23A     HAL2     0.900000E-01   1.00800           0
     17788 MEMB     143      CHL1     H23B     HAL2     0.900000E-01   1.00800           0
     17789 MEMB     143      CHL1     C24      CTL2    -0.180000       12.0110           0
     17790 MEMB     143      CHL1     H24A     HAL2     0.900000E-01   1.00800           0
     17791 MEMB     143      CHL1     H24B     HAL2     0.900000E-01   1.00800           0
     17792 MEMB     143      CHL1     C25      CTL1    -0.900000E-01   12.0110           0
     17793 MEMB     143      CHL1     H25      HAL1     0.900000E-01   1.00800           0
     17794 MEMB     143      CHL1     C26      CTL3    -0.270000       12.0110           0
     17795 MEMB     143      CHL1     H26A     HAL3     0.900000E-01   1.00800           0
     17796 MEMB     143      CHL1     H26B     HAL3     0.900000E-01   1.00800           0
     17797 MEMB     143      CHL1     H26C     HAL3     0.900000E-01   1.00800           0
     17798 MEMB     143      CHL1     C27      CTL3    -0.270000       12.0110           0
     17799 MEMB     143      CHL1     H27A     HAL3     0.900000E-01   1.00800           0
     17800 MEMB     143      CHL1     H27B     HAL3     0.900000E-01   1.00800           0
     17801 MEMB     143      CHL1     H27C     HAL3     0.900000E-01   1.00800           0
     17802 MEMB     144      DOPC     N        NTL     -0.600000       14.0070           0
     17803 MEMB     144      DOPC     C12      CTL2    -0.100000       12.0110           0
     17804 MEMB     144      DOPC     H12A     HL       0.250000       1.00800           0
     17805 MEMB     144      DOPC     H12B     HL       0.250000       1.00800           0
     17806 MEMB     144      DOPC     C13      CTL5    -0.350000       12.0110           0
     17807 MEMB     144      DOPC     H13A     HL       0.250000       1.00800           0
     17808 MEMB     144      DOPC     H13B     HL       0.250000       1.00800           0
     17809 MEMB     144      DOPC     H13C     HL       0.250000       1.00800           0
     17810 MEMB     144      DOPC     C14      CTL5    -0.350000       12.0110           0
     17811 MEMB     144      DOPC     H14A     HL       0.250000       1.00800           0
     17812 MEMB     144      DOPC     H14B     HL       0.250000       1.00800           0
     17813 MEMB     144      DOPC     H14C     HL       0.250000       1.00800           0
     17814 MEMB     144      DOPC     C15      CTL5    -0.350000       12.0110           0
     17815 MEMB     144      DOPC     H15A     HL       0.250000       1.00800           0
     17816 MEMB     144      DOPC     H15B     HL       0.250000       1.00800           0
     17817 MEMB     144      DOPC     H15C     HL       0.250000       1.00800           0
     17818 MEMB     144      DOPC     C11      CTL2    -0.800000E-01   12.0110           0
     17819 MEMB     144      DOPC     H11A     HAL2     0.900000E-01   1.00800           0
     17820 MEMB     144      DOPC     H11B     HAL2     0.900000E-01   1.00800           0
     17821 MEMB     144      DOPC     P        PL        1.50000       30.9740           0
     17822 MEMB     144      DOPC     O13      O2L     -0.780000       15.9994           0
     17823 MEMB     144      DOPC     O14      O2L     -0.780000       15.9994           0
     17824 MEMB     144      DOPC     O12      OSLP    -0.570000       15.9994           0
     17825 MEMB     144      DOPC     O11      OSLP    -0.570000       15.9994           0
     17826 MEMB     144      DOPC     C1       CTL2    -0.800000E-01   12.0110           0
     17827 MEMB     144      DOPC     HA       HAL2     0.900000E-01   1.00800           0
     17828 MEMB     144      DOPC     HB       HAL2     0.900000E-01   1.00800           0
     17829 MEMB     144      DOPC     C2       CTL1     0.170000       12.0110           0
     17830 MEMB     144      DOPC     HS       HAL1     0.900000E-01   1.00800           0
     17831 MEMB     144      DOPC     O21      OSL     -0.490000       15.9994           0
     17832 MEMB     144      DOPC     C21      CL       0.900000       12.0110           0
     17833 MEMB     144      DOPC     O22      OBL     -0.630000       15.9994           0
     17834 MEMB     144      DOPC     C22      CTL2    -0.220000       12.0110           0
     17835 MEMB     144      DOPC     H2R      HAL2     0.900000E-01   1.00800           0
     17836 MEMB     144      DOPC     H2S      HAL2     0.900000E-01   1.00800           0
     17837 MEMB     144      DOPC     C3       CTL2     0.800000E-01   12.0110           0
     17838 MEMB     144      DOPC     HX       HAL2     0.900000E-01   1.00800           0
     17839 MEMB     144      DOPC     HY       HAL2     0.900000E-01   1.00800           0
     17840 MEMB     144      DOPC     O31      OSL     -0.490000       15.9994           0
     17841 MEMB     144      DOPC     C31      CL       0.900000       12.0110           0
     17842 MEMB     144      DOPC     O32      OBL     -0.630000       15.9994           0
     17843 MEMB     144      DOPC     C32      CTL2    -0.220000       12.0110           0
     17844 MEMB     144      DOPC     H2X      HAL2     0.900000E-01   1.00800           0
     17845 MEMB     144      DOPC     H2Y      HAL2     0.900000E-01   1.00800           0
     17846 MEMB     144      DOPC     C23      CTL2    -0.180000       12.0110           0
     17847 MEMB     144      DOPC     H3R      HAL2     0.900000E-01   1.00800           0
     17848 MEMB     144      DOPC     H3S      HAL2     0.900000E-01   1.00800           0
     17849 MEMB     144      DOPC     C24      CTL2    -0.180000       12.0110           0
     17850 MEMB     144      DOPC     H4R      HAL2     0.900000E-01   1.00800           0
     17851 MEMB     144      DOPC     H4S      HAL2     0.900000E-01   1.00800           0
     17852 MEMB     144      DOPC     C25      CTL2    -0.180000       12.0110           0
     17853 MEMB     144      DOPC     H5R      HAL2     0.900000E-01   1.00800           0
     17854 MEMB     144      DOPC     H5S      HAL2     0.900000E-01   1.00800           0
     17855 MEMB     144      DOPC     C26      CTL2    -0.180000       12.0110           0
     17856 MEMB     144      DOPC     H6R      HAL2     0.900000E-01   1.00800           0
     17857 MEMB     144      DOPC     H6S      HAL2     0.900000E-01   1.00800           0
     17858 MEMB     144      DOPC     C27      CTL2    -0.180000       12.0110           0
     17859 MEMB     144      DOPC     H7R      HAL2     0.900000E-01   1.00800           0
     17860 MEMB     144      DOPC     H7S      HAL2     0.900000E-01   1.00800           0
     17861 MEMB     144      DOPC     C28      CTL2    -0.180000       12.0110           0
     17862 MEMB     144      DOPC     H8R      HAL2     0.900000E-01   1.00800           0
     17863 MEMB     144      DOPC     H8S      HAL2     0.900000E-01   1.00800           0
     17864 MEMB     144      DOPC     C29      CEL1    -0.150000       12.0110           0
     17865 MEMB     144      DOPC     H9R      HEL1     0.150000       1.00800           0
     17866 MEMB     144      DOPC     C210     CEL1    -0.150000       12.0110           0
     17867 MEMB     144      DOPC     H10R     HEL1     0.150000       1.00800           0
     17868 MEMB     144      DOPC     C211     CTL2    -0.180000       12.0110           0
     17869 MEMB     144      DOPC     H11R     HAL2     0.900000E-01   1.00800           0
     17870 MEMB     144      DOPC     H11S     HAL2     0.900000E-01   1.00800           0
     17871 MEMB     144      DOPC     C212     CTL2    -0.180000       12.0110           0
     17872 MEMB     144      DOPC     H12R     HAL2     0.900000E-01   1.00800           0
     17873 MEMB     144      DOPC     H12S     HAL2     0.900000E-01   1.00800           0
     17874 MEMB     144      DOPC     C213     CTL2    -0.180000       12.0110           0
     17875 MEMB     144      DOPC     H13R     HAL2     0.900000E-01   1.00800           0
     17876 MEMB     144      DOPC     H13S     HAL2     0.900000E-01   1.00800           0
     17877 MEMB     144      DOPC     C214     CTL2    -0.180000       12.0110           0
     17878 MEMB     144      DOPC     H14R     HAL2     0.900000E-01   1.00800           0
     17879 MEMB     144      DOPC     H14S     HAL2     0.900000E-01   1.00800           0
     17880 MEMB     144      DOPC     C215     CTL2    -0.180000       12.0110           0
     17881 MEMB     144      DOPC     H15R     HAL2     0.900000E-01   1.00800           0
     17882 MEMB     144      DOPC     H15S     HAL2     0.900000E-01   1.00800           0
     17883 MEMB     144      DOPC     C216     CTL2    -0.180000       12.0110           0
     17884 MEMB     144      DOPC     H16R     HAL2     0.900000E-01   1.00800           0
     17885 MEMB     144      DOPC     H16S     HAL2     0.900000E-01   1.00800           0
     17886 MEMB     144      DOPC     C217     CTL2    -0.180000       12.0110           0
     17887 MEMB     144      DOPC     H17R     HAL2     0.900000E-01   1.00800           0
     17888 MEMB     144      DOPC     H17S     HAL2     0.900000E-01   1.00800           0
     17889 MEMB     144      DOPC     C218     CTL3    -0.270000       12.0110           0
     17890 MEMB     144      DOPC     H18R     HAL3     0.900000E-01   1.00800           0
     17891 MEMB     144      DOPC     H18S     HAL3     0.900000E-01   1.00800           0
     17892 MEMB     144      DOPC     H18T     HAL3     0.900000E-01   1.00800           0
     17893 MEMB     144      DOPC     C33      CTL2    -0.180000       12.0110           0
     17894 MEMB     144      DOPC     H3X      HAL2     0.900000E-01   1.00800           0
     17895 MEMB     144      DOPC     H3Y      HAL2     0.900000E-01   1.00800           0
     17896 MEMB     144      DOPC     C34      CTL2    -0.180000       12.0110           0
     17897 MEMB     144      DOPC     H4X      HAL2     0.900000E-01   1.00800           0
     17898 MEMB     144      DOPC     H4Y      HAL2     0.900000E-01   1.00800           0
     17899 MEMB     144      DOPC     C35      CTL2    -0.180000       12.0110           0
     17900 MEMB     144      DOPC     H5X      HAL2     0.900000E-01   1.00800           0
     17901 MEMB     144      DOPC     H5Y      HAL2     0.900000E-01   1.00800           0
     17902 MEMB     144      DOPC     C36      CTL2    -0.180000       12.0110           0
     17903 MEMB     144      DOPC     H6X      HAL2     0.900000E-01   1.00800           0
     17904 MEMB     144      DOPC     H6Y      HAL2     0.900000E-01   1.00800           0
     17905 MEMB     144      DOPC     C37      CTL2    -0.180000       12.0110           0
     17906 MEMB     144      DOPC     H7X      HAL2     0.900000E-01   1.00800           0
     17907 MEMB     144      DOPC     H7Y      HAL2     0.900000E-01   1.00800           0
     17908 MEMB     144      DOPC     C38      CTL2    -0.180000       12.0110           0
     17909 MEMB     144      DOPC     H8X      HAL2     0.900000E-01   1.00800           0
     17910 MEMB     144      DOPC     H8Y      HAL2     0.900000E-01   1.00800           0
     17911 MEMB     144      DOPC     C39      CEL1    -0.150000       12.0110           0
     17912 MEMB     144      DOPC     H9X      HEL1     0.150000       1.00800           0
     17913 MEMB     144      DOPC     C310     CEL1    -0.150000       12.0110           0
     17914 MEMB     144      DOPC     H10X     HEL1     0.150000       1.00800           0
     17915 MEMB     144      DOPC     C311     CTL2    -0.180000       12.0110           0
     17916 MEMB     144      DOPC     H11X     HAL2     0.900000E-01   1.00800           0
     17917 MEMB     144      DOPC     H11Y     HAL2     0.900000E-01   1.00800           0
     17918 MEMB     144      DOPC     C312     CTL2    -0.180000       12.0110           0
     17919 MEMB     144      DOPC     H12X     HAL2     0.900000E-01   1.00800           0
     17920 MEMB     144      DOPC     H12Y     HAL2     0.900000E-01   1.00800           0
     17921 MEMB     144      DOPC     C313     CTL2    -0.180000       12.0110           0
     17922 MEMB     144      DOPC     H13X     HAL2     0.900000E-01   1.00800           0
     17923 MEMB     144      DOPC     H13Y     HAL2     0.900000E-01   1.00800           0
     17924 MEMB     144      DOPC     C314     CTL2    -0.180000       12.0110           0
     17925 MEMB     144      DOPC     H14X     HAL2     0.900000E-01   1.00800           0
     17926 MEMB     144      DOPC     H14Y     HAL2     0.900000E-01   1.00800           0
     17927 MEMB     144      DOPC     C315     CTL2    -0.180000       12.0110           0
     17928 MEMB     144      DOPC     H15X     HAL2     0.900000E-01   1.00800           0
     17929 MEMB     144      DOPC     H15Y     HAL2     0.900000E-01   1.00800           0
     17930 MEMB     144      DOPC     C316     CTL2    -0.180000       12.0110           0
     17931 MEMB     144      DOPC     H16X     HAL2     0.900000E-01   1.00800           0
     17932 MEMB     144      DOPC     H16Y     HAL2     0.900000E-01   1.00800           0
     17933 MEMB     144      DOPC     C317     CTL2    -0.180000       12.0110           0
     17934 MEMB     144      DOPC     H17X     HAL2     0.900000E-01   1.00800           0
     17935 MEMB     144      DOPC     H17Y     HAL2     0.900000E-01   1.00800           0
     17936 MEMB     144      DOPC     C318     CTL3    -0.270000       12.0110           0
     17937 MEMB     144      DOPC     H18X     HAL3     0.900000E-01   1.00800           0
     17938 MEMB     144      DOPC     H18Y     HAL3     0.900000E-01   1.00800           0
     17939 MEMB     144      DOPC     H18Z     HAL3     0.900000E-01   1.00800           0
     17940 MEMB     145      23SM     N        NTL     -0.600000       14.0070           0
     17941 MEMB     145      23SM     C15      CTL5    -0.350000       12.0110           0
     17942 MEMB     145      23SM     H15A     HL       0.250000       1.00800           0
     17943 MEMB     145      23SM     H15B     HL       0.250000       1.00800           0
     17944 MEMB     145      23SM     H15C     HL       0.250000       1.00800           0
     17945 MEMB     145      23SM     C14      CTL5    -0.350000       12.0110           0
     17946 MEMB     145      23SM     H14A     HL       0.250000       1.00800           0
     17947 MEMB     145      23SM     H14B     HL       0.250000       1.00800           0
     17948 MEMB     145      23SM     H14C     HL       0.250000       1.00800           0
     17949 MEMB     145      23SM     C13      CTL5    -0.350000       12.0110           0
     17950 MEMB     145      23SM     H13A     HL       0.250000       1.00800           0
     17951 MEMB     145      23SM     H13B     HL       0.250000       1.00800           0
     17952 MEMB     145      23SM     H13C     HL       0.250000       1.00800           0
     17953 MEMB     145      23SM     C12      CTL2    -0.100000       12.0110           0
     17954 MEMB     145      23SM     H12A     HL       0.250000       1.00800           0
     17955 MEMB     145      23SM     H12B     HL       0.250000       1.00800           0
     17956 MEMB     145      23SM     C11      CTL2    -0.800000E-01   12.0110           0
     17957 MEMB     145      23SM     H11A     HAL2     0.900000E-01   1.00800           0
     17958 MEMB     145      23SM     H11B     HAL2     0.900000E-01   1.00800           0
     17959 MEMB     145      23SM     P        PL        1.50000       30.9740           0
     17960 MEMB     145      23SM     O13      O2L     -0.780000       15.9994           0
     17961 MEMB     145      23SM     O14      O2L     -0.780000       15.9994           0
     17962 MEMB     145      23SM     O11      OSLP    -0.570000       15.9994           0
     17963 MEMB     145      23SM     O12      OSLP    -0.570000       15.9994           0
     17964 MEMB     145      23SM     C1S      CTL2    -0.800000E-01   12.0110           0
     17965 MEMB     145      23SM     H1S      HAL2     0.900000E-01   1.00800           0
     17966 MEMB     145      23SM     H1T      HAL2     0.900000E-01   1.00800           0
     17967 MEMB     145      23SM     NF       NHL     -0.700000       14.0070           0
     17968 MEMB     145      23SM     HNF      H        0.350000       1.00800           0
     17969 MEMB     145      23SM     C2S      CTL1     0.300000       12.0110           0
     17970 MEMB     145      23SM     H2S      HAL1     0.500000E-01   1.00800           0
     17971 MEMB     145      23SM     C3S      CTO1     0.500000       12.0110           0
     17972 MEMB     145      23SM     H3S      HAL1    -0.110000       1.00800           0
     17973 MEMB     145      23SM     O3       OHL     -0.690000       15.9994           0
     17974 MEMB     145      23SM     HO3      HOL      0.300000       1.00800           0
     17975 MEMB     145      23SM     C4S      CEL3    -0.150000       12.0110           0
     17976 MEMB     145      23SM     H4S      HEL1     0.150000       1.00800           0
     17977 MEMB     145      23SM     C5S      CEL3    -0.150000       12.0110           0
     17978 MEMB     145      23SM     H5S      HEL1     0.150000       1.00800           0
     17979 MEMB     145      23SM     C6S      CTL2    -0.180000       12.0110           0
     17980 MEMB     145      23SM     H6S      HAL2     0.900000E-01   1.00800           0
     17981 MEMB     145      23SM     H6T      HAL2     0.900000E-01   1.00800           0
     17982 MEMB     145      23SM     C7S      CTL2    -0.180000       12.0110           0
     17983 MEMB     145      23SM     H7S      HAL2     0.900000E-01   1.00800           0
     17984 MEMB     145      23SM     H7T      HAL2     0.900000E-01   1.00800           0
     17985 MEMB     145      23SM     C8S      CTL2    -0.180000       12.0110           0
     17986 MEMB     145      23SM     H8S      HAL2     0.900000E-01   1.00800           0
     17987 MEMB     145      23SM     H8T      HAL2     0.900000E-01   1.00800           0
     17988 MEMB     145      23SM     C9S      CTL2    -0.180000       12.0110           0
     17989 MEMB     145      23SM     H9S      HAL2     0.900000E-01   1.00800           0
     17990 MEMB     145      23SM     H9T      HAL2     0.900000E-01   1.00800           0
     17991 MEMB     145      23SM     C10S     CTL2    -0.180000       12.0110           0
     17992 MEMB     145      23SM     H10S     HAL2     0.900000E-01   1.00800           0
     17993 MEMB     145      23SM     H10T     HAL2     0.900000E-01   1.00800           0
     17994 MEMB     145      23SM     C11S     CTL2    -0.180000       12.0110           0
     17995 MEMB     145      23SM     H11S     HAL2     0.900000E-01   1.00800           0
     17996 MEMB     145      23SM     H11T     HAL2     0.900000E-01   1.00800           0
     17997 MEMB     145      23SM     C12S     CTL2    -0.180000       12.0110           0
     17998 MEMB     145      23SM     H12S     HAL2     0.900000E-01   1.00800           0
     17999 MEMB     145      23SM     H12T     HAL2     0.900000E-01   1.00800           0
     18000 MEMB     145      23SM     C13S     CTL2    -0.180000       12.0110           0
     18001 MEMB     145      23SM     H13S     HAL2     0.900000E-01   1.00800           0
     18002 MEMB     145      23SM     H13T     HAL2     0.900000E-01   1.00800           0
     18003 MEMB     145      23SM     C14S     CTL2    -0.180000       12.0110           0
     18004 MEMB     145      23SM     H14S     HAL2     0.900000E-01   1.00800           0
     18005 MEMB     145      23SM     H14T     HAL2     0.900000E-01   1.00800           0
     18006 MEMB     145      23SM     C15S     CTL2    -0.180000       12.0110           0
     18007 MEMB     145      23SM     H15S     HAL2     0.900000E-01   1.00800           0
     18008 MEMB     145      23SM     H15T     HAL2     0.900000E-01   1.00800           0
     18009 MEMB     145      23SM     C16S     CTL2    -0.180000       12.0110           0
     18010 MEMB     145      23SM     H16S     HAL2     0.900000E-01   1.00800           0
     18011 MEMB     145      23SM     H16T     HAL2     0.900000E-01   1.00800           0
     18012 MEMB     145      23SM     C17S     CTL2    -0.180000       12.0110           0
     18013 MEMB     145      23SM     H17S     HAL2     0.900000E-01   1.00800           0
     18014 MEMB     145      23SM     H17T     HAL2     0.900000E-01   1.00800           0
     18015 MEMB     145      23SM     C18S     CTL3    -0.270000       12.0110           0
     18016 MEMB     145      23SM     H18S     HAL3     0.900000E-01   1.00800           0
     18017 MEMB     145      23SM     H18T     HAL3     0.900000E-01   1.00800           0
     18018 MEMB     145      23SM     H18U     HAL3     0.900000E-01   1.00800           0
     18019 MEMB     145      23SM     C1F      C        0.550000       12.0110           0
     18020 MEMB     145      23SM     OF       O       -0.600000       15.9994           0
     18021 MEMB     145      23SM     C2F      CTL2    -0.700000E-01   12.0110           0
     18022 MEMB     145      23SM     H2F      HAL2     0.600000E-01   1.00800           0
     18023 MEMB     145      23SM     H2G      HAL2     0.600000E-01   1.00800           0
     18024 MEMB     145      23SM     C3F      CTL2    -0.180000       12.0110           0
     18025 MEMB     145      23SM     H3F      HAL2     0.900000E-01   1.00800           0
     18026 MEMB     145      23SM     H3G      HAL2     0.900000E-01   1.00800           0
     18027 MEMB     145      23SM     C4F      CTL2    -0.180000       12.0110           0
     18028 MEMB     145      23SM     H4F      HAL2     0.900000E-01   1.00800           0
     18029 MEMB     145      23SM     H4G      HAL2     0.900000E-01   1.00800           0
     18030 MEMB     145      23SM     C5F      CTL2    -0.180000       12.0110           0
     18031 MEMB     145      23SM     H5F      HAL2     0.900000E-01   1.00800           0
     18032 MEMB     145      23SM     H5G      HAL2     0.900000E-01   1.00800           0
     18033 MEMB     145      23SM     C6F      CTL2    -0.180000       12.0110           0
     18034 MEMB     145      23SM     H6F      HAL2     0.900000E-01   1.00800           0
     18035 MEMB     145      23SM     H6G      HAL2     0.900000E-01   1.00800           0
     18036 MEMB     145      23SM     C7F      CTL2    -0.180000       12.0110           0
     18037 MEMB     145      23SM     H7F      HAL2     0.900000E-01   1.00800           0
     18038 MEMB     145      23SM     H7G      HAL2     0.900000E-01   1.00800           0
     18039 MEMB     145      23SM     C8F      CTL2    -0.180000       12.0110           0
     18040 MEMB     145      23SM     H8F      HAL2     0.900000E-01   1.00800           0
     18041 MEMB     145      23SM     H8G      HAL2     0.900000E-01   1.00800           0
     18042 MEMB     145      23SM     C9F      CTL2    -0.180000       12.0110           0
     18043 MEMB     145      23SM     H9F      HAL2     0.900000E-01   1.00800           0
     18044 MEMB     145      23SM     H9G      HAL2     0.900000E-01   1.00800           0
     18045 MEMB     145      23SM     C10F     CTL2    -0.180000       12.0110           0
     18046 MEMB     145      23SM     H10F     HAL2     0.900000E-01   1.00800           0
     18047 MEMB     145      23SM     H10G     HAL2     0.900000E-01   1.00800           0
     18048 MEMB     145      23SM     C11F     CTL2    -0.180000       12.0110           0
     18049 MEMB     145      23SM     H11F     HAL2     0.900000E-01   1.00800           0
     18050 MEMB     145      23SM     H11G     HAL2     0.900000E-01   1.00800           0
     18051 MEMB     145      23SM     C12F     CTL2    -0.180000       12.0110           0
     18052 MEMB     145      23SM     H12F     HAL2     0.900000E-01   1.00800           0
     18053 MEMB     145      23SM     H12G     HAL2     0.900000E-01   1.00800           0
     18054 MEMB     145      23SM     C13F     CTL2    -0.180000       12.0110           0
     18055 MEMB     145      23SM     H13F     HAL2     0.900000E-01   1.00800           0
     18056 MEMB     145      23SM     H13G     HAL2     0.900000E-01   1.00800           0
     18057 MEMB     145      23SM     C14F     CTL2    -0.180000       12.0110           0
     18058 MEMB     145      23SM     H14F     HAL2     0.900000E-01   1.00800           0
     18059 MEMB     145      23SM     H14G     HAL2     0.900000E-01   1.00800           0
     18060 MEMB     145      23SM     C15F     CTL2    -0.180000       12.0110           0
     18061 MEMB     145      23SM     H15F     HAL2     0.900000E-01   1.00800           0
     18062 MEMB     145      23SM     H15G     HAL2     0.900000E-01   1.00800           0
     18063 MEMB     145      23SM     C16F     CTL2    -0.180000       12.0110           0
     18064 MEMB     145      23SM     H16F     HAL2     0.900000E-01   1.00800           0
     18065 MEMB     145      23SM     H16G     HAL2     0.900000E-01   1.00800           0
     18066 MEMB     145      23SM     C17F     CTL2    -0.180000       12.0110           0
     18067 MEMB     145      23SM     H17F     HAL2     0.900000E-01   1.00800           0
     18068 MEMB     145      23SM     H17G     HAL2     0.900000E-01   1.00800           0
     18069 MEMB     145      23SM     C18F     CTL2    -0.180000       12.0110           0
     18070 MEMB     145      23SM     H18F     HAL2     0.900000E-01   1.00800           0
     18071 MEMB     145      23SM     H18G     HAL2     0.900000E-01   1.00800           0
     18072 MEMB     145      23SM     C19F     CTL2    -0.180000       12.0110           0
     18073 MEMB     145      23SM     H19F     HAL2     0.900000E-01   1.00800           0
     18074 MEMB     145      23SM     H19G     HAL2     0.900000E-01   1.00800           0
     18075 MEMB     145      23SM     C20F     CTL2    -0.180000       12.0110           0
     18076 MEMB     145      23SM     H20F     HAL2     0.900000E-01   1.00800           0
     18077 MEMB     145      23SM     H20G     HAL2     0.900000E-01   1.00800           0
     18078 MEMB     145      23SM     C21F     CTL2    -0.180000       12.0110           0
     18079 MEMB     145      23SM     H21F     HAL2     0.900000E-01   1.00800           0
     18080 MEMB     145      23SM     H21G     HAL2     0.900000E-01   1.00800           0
     18081 MEMB     145      23SM     C22F     CTL2    -0.180000       12.0110           0
     18082 MEMB     145      23SM     H22F     HAL2     0.900000E-01   1.00800           0
     18083 MEMB     145      23SM     H22G     HAL2     0.900000E-01   1.00800           0
     18084 MEMB     145      23SM     C23F     CTL3    -0.270000       12.0110           0
     18085 MEMB     145      23SM     H23F     HAL3     0.900000E-01   1.00800           0
     18086 MEMB     145      23SM     H23G     HAL3     0.900000E-01   1.00800           0
     18087 MEMB     145      23SM     H23H     HAL3     0.900000E-01   1.00800           0
     18088 MEMB     146      DOPE     N        NH3L    -0.300000       14.0070           0
     18089 MEMB     146      DOPE     HN1      HCL      0.330000       1.00800           0
     18090 MEMB     146      DOPE     HN2      HCL      0.330000       1.00800           0
     18091 MEMB     146      DOPE     HN3      HCL      0.330000       1.00800           0
     18092 MEMB     146      DOPE     C12      CTL2     0.130000       12.0110           0
     18093 MEMB     146      DOPE     H12A     HAL2     0.900000E-01   1.00800           0
     18094 MEMB     146      DOPE     H12B     HAL2     0.900000E-01   1.00800           0
     18095 MEMB     146      DOPE     C11      CTL2    -0.800000E-01   12.0110           0
     18096 MEMB     146      DOPE     H11A     HAL2     0.900000E-01   1.00800           0
     18097 MEMB     146      DOPE     H11B     HAL2     0.900000E-01   1.00800           0
     18098 MEMB     146      DOPE     P        PL        1.50000       30.9740           0
     18099 MEMB     146      DOPE     O13      O2L     -0.780000       15.9994           0
     18100 MEMB     146      DOPE     O14      O2L     -0.780000       15.9994           0
     18101 MEMB     146      DOPE     O11      OSLP    -0.570000       15.9994           0
     18102 MEMB     146      DOPE     O12      OSLP    -0.570000       15.9994           0
     18103 MEMB     146      DOPE     C1       CTL2    -0.800000E-01   12.0110           0
     18104 MEMB     146      DOPE     HA       HAL2     0.900000E-01   1.00800           0
     18105 MEMB     146      DOPE     HB       HAL2     0.900000E-01   1.00800           0
     18106 MEMB     146      DOPE     C2       CTL1     0.170000       12.0110           0
     18107 MEMB     146      DOPE     HS       HAL1     0.900000E-01   1.00800           0
     18108 MEMB     146      DOPE     O21      OSL     -0.490000       15.9994           0
     18109 MEMB     146      DOPE     C21      CL       0.900000       12.0110           0
     18110 MEMB     146      DOPE     O22      OBL     -0.630000       15.9994           0
     18111 MEMB     146      DOPE     C22      CTL2    -0.220000       12.0110           0
     18112 MEMB     146      DOPE     H2R      HAL2     0.900000E-01   1.00800           0
     18113 MEMB     146      DOPE     H2S      HAL2     0.900000E-01   1.00800           0
     18114 MEMB     146      DOPE     C3       CTL2     0.800000E-01   12.0110           0
     18115 MEMB     146      DOPE     HX       HAL2     0.900000E-01   1.00800           0
     18116 MEMB     146      DOPE     HY       HAL2     0.900000E-01   1.00800           0
     18117 MEMB     146      DOPE     O31      OSL     -0.490000       15.9994           0
     18118 MEMB     146      DOPE     C31      CL       0.900000       12.0110           0
     18119 MEMB     146      DOPE     O32      OBL     -0.630000       15.9994           0
     18120 MEMB     146      DOPE     C32      CTL2    -0.220000       12.0110           0
     18121 MEMB     146      DOPE     H2X      HAL2     0.900000E-01   1.00800           0
     18122 MEMB     146      DOPE     H2Y      HAL2     0.900000E-01   1.00800           0
     18123 MEMB     146      DOPE     C23      CTL2    -0.180000       12.0110           0
     18124 MEMB     146      DOPE     H3R      HAL2     0.900000E-01   1.00800           0
     18125 MEMB     146      DOPE     H3S      HAL2     0.900000E-01   1.00800           0
     18126 MEMB     146      DOPE     C24      CTL2    -0.180000       12.0110           0
     18127 MEMB     146      DOPE     H4R      HAL2     0.900000E-01   1.00800           0
     18128 MEMB     146      DOPE     H4S      HAL2     0.900000E-01   1.00800           0
     18129 MEMB     146      DOPE     C25      CTL2    -0.180000       12.0110           0
     18130 MEMB     146      DOPE     H5R      HAL2     0.900000E-01   1.00800           0
     18131 MEMB     146      DOPE     H5S      HAL2     0.900000E-01   1.00800           0
     18132 MEMB     146      DOPE     C26      CTL2    -0.180000       12.0110           0
     18133 MEMB     146      DOPE     H6R      HAL2     0.900000E-01   1.00800           0
     18134 MEMB     146      DOPE     H6S      HAL2     0.900000E-01   1.00800           0
     18135 MEMB     146      DOPE     C27      CTL2    -0.180000       12.0110           0
     18136 MEMB     146      DOPE     H7R      HAL2     0.900000E-01   1.00800           0
     18137 MEMB     146      DOPE     H7S      HAL2     0.900000E-01   1.00800           0
     18138 MEMB     146      DOPE     C28      CTL2    -0.180000       12.0110           0
     18139 MEMB     146      DOPE     H8R      HAL2     0.900000E-01   1.00800           0
     18140 MEMB     146      DOPE     H8S      HAL2     0.900000E-01   1.00800           0
     18141 MEMB     146      DOPE     C29      CEL1    -0.150000       12.0110           0
     18142 MEMB     146      DOPE     H9R      HEL1     0.150000       1.00800           0
     18143 MEMB     146      DOPE     C210     CEL1    -0.150000       12.0110           0
     18144 MEMB     146      DOPE     H10R     HEL1     0.150000       1.00800           0
     18145 MEMB     146      DOPE     C211     CTL2    -0.180000       12.0110           0
     18146 MEMB     146      DOPE     H11R     HAL2     0.900000E-01   1.00800           0
     18147 MEMB     146      DOPE     H11S     HAL2     0.900000E-01   1.00800           0
     18148 MEMB     146      DOPE     C212     CTL2    -0.180000       12.0110           0
     18149 MEMB     146      DOPE     H12R     HAL2     0.900000E-01   1.00800           0
     18150 MEMB     146      DOPE     H12S     HAL2     0.900000E-01   1.00800           0
     18151 MEMB     146      DOPE     C213     CTL2    -0.180000       12.0110           0
     18152 MEMB     146      DOPE     H13R     HAL2     0.900000E-01   1.00800           0
     18153 MEMB     146      DOPE     H13S     HAL2     0.900000E-01   1.00800           0
     18154 MEMB     146      DOPE     C214     CTL2    -0.180000       12.0110           0
     18155 MEMB     146      DOPE     H14R     HAL2     0.900000E-01   1.00800           0
     18156 MEMB     146      DOPE     H14S     HAL2     0.900000E-01   1.00800           0
     18157 MEMB     146      DOPE     C215     CTL2    -0.180000       12.0110           0
     18158 MEMB     146      DOPE     H15R     HAL2     0.900000E-01   1.00800           0
     18159 MEMB     146      DOPE     H15S     HAL2     0.900000E-01   1.00800           0
     18160 MEMB     146      DOPE     C216     CTL2    -0.180000       12.0110           0
     18161 MEMB     146      DOPE     H16R     HAL2     0.900000E-01   1.00800           0
     18162 MEMB     146      DOPE     H16S     HAL2     0.900000E-01   1.00800           0
     18163 MEMB     146      DOPE     C217     CTL2    -0.180000       12.0110           0
     18164 MEMB     146      DOPE     H17R     HAL2     0.900000E-01   1.00800           0
     18165 MEMB     146      DOPE     H17S     HAL2     0.900000E-01   1.00800           0
     18166 MEMB     146      DOPE     C218     CTL3    -0.270000       12.0110           0
     18167 MEMB     146      DOPE     H18R     HAL3     0.900000E-01   1.00800           0
     18168 MEMB     146      DOPE     H18S     HAL3     0.900000E-01   1.00800           0
     18169 MEMB     146      DOPE     H18T     HAL3     0.900000E-01   1.00800           0
     18170 MEMB     146      DOPE     C33      CTL2    -0.180000       12.0110           0
     18171 MEMB     146      DOPE     H3X      HAL2     0.900000E-01   1.00800           0
     18172 MEMB     146      DOPE     H3Y      HAL2     0.900000E-01   1.00800           0
     18173 MEMB     146      DOPE     C34      CTL2    -0.180000       12.0110           0
     18174 MEMB     146      DOPE     H4X      HAL2     0.900000E-01   1.00800           0
     18175 MEMB     146      DOPE     H4Y      HAL2     0.900000E-01   1.00800           0
     18176 MEMB     146      DOPE     C35      CTL2    -0.180000       12.0110           0
     18177 MEMB     146      DOPE     H5X      HAL2     0.900000E-01   1.00800           0
     18178 MEMB     146      DOPE     H5Y      HAL2     0.900000E-01   1.00800           0
     18179 MEMB     146      DOPE     C36      CTL2    -0.180000       12.0110           0
     18180 MEMB     146      DOPE     H6X      HAL2     0.900000E-01   1.00800           0
     18181 MEMB     146      DOPE     H6Y      HAL2     0.900000E-01   1.00800           0
     18182 MEMB     146      DOPE     C37      CTL2    -0.180000       12.0110           0
     18183 MEMB     146      DOPE     H7X      HAL2     0.900000E-01   1.00800           0
     18184 MEMB     146      DOPE     H7Y      HAL2     0.900000E-01   1.00800           0
     18185 MEMB     146      DOPE     C38      CTL2    -0.180000       12.0110           0
     18186 MEMB     146      DOPE     H8X      HAL2     0.900000E-01   1.00800           0
     18187 MEMB     146      DOPE     H8Y      HAL2     0.900000E-01   1.00800           0
     18188 MEMB     146      DOPE     C39      CEL1    -0.150000       12.0110           0
     18189 MEMB     146      DOPE     H9X      HEL1     0.150000       1.00800           0
     18190 MEMB     146      DOPE     C310     CEL1    -0.150000       12.0110           0
     18191 MEMB     146      DOPE     H10X     HEL1     0.150000       1.00800           0
     18192 MEMB     146      DOPE     C311     CTL2    -0.180000       12.0110           0
     18193 MEMB     146      DOPE     H11X     HAL2     0.900000E-01   1.00800           0
     18194 MEMB     146      DOPE     H11Y     HAL2     0.900000E-01   1.00800           0
     18195 MEMB     146      DOPE     C312     CTL2    -0.180000       12.0110           0
     18196 MEMB     146      DOPE     H12X     HAL2     0.900000E-01   1.00800           0
     18197 MEMB     146      DOPE     H12Y     HAL2     0.900000E-01   1.00800           0
     18198 MEMB     146      DOPE     C313     CTL2    -0.180000       12.0110           0
     18199 MEMB     146      DOPE     H13X     HAL2     0.900000E-01   1.00800           0
     18200 MEMB     146      DOPE     H13Y     HAL2     0.900000E-01   1.00800           0
     18201 MEMB     146      DOPE     C314     CTL2    -0.180000       12.0110           0
     18202 MEMB     146      DOPE     H14X     HAL2     0.900000E-01   1.00800           0
     18203 MEMB     146      DOPE     H14Y     HAL2     0.900000E-01   1.00800           0
     18204 MEMB     146      DOPE     C315     CTL2    -0.180000       12.0110           0
     18205 MEMB     146      DOPE     H15X     HAL2     0.900000E-01   1.00800           0
     18206 MEMB     146      DOPE     H15Y     HAL2     0.900000E-01   1.00800           0
     18207 MEMB     146      DOPE     C316     CTL2    -0.180000       12.0110           0
     18208 MEMB     146      DOPE     H16X     HAL2     0.900000E-01   1.00800           0
     18209 MEMB     146      DOPE     H16Y     HAL2     0.900000E-01   1.00800           0
     18210 MEMB     146      DOPE     C317     CTL2    -0.180000       12.0110           0
     18211 MEMB     146      DOPE     H17X     HAL2     0.900000E-01   1.00800           0
     18212 MEMB     146      DOPE     H17Y     HAL2     0.900000E-01   1.00800           0
     18213 MEMB     146      DOPE     C318     CTL3    -0.270000       12.0110           0
     18214 MEMB     146      DOPE     H18X     HAL3     0.900000E-01   1.00800           0
     18215 MEMB     146      DOPE     H18Y     HAL3     0.900000E-01   1.00800           0
     18216 MEMB     146      DOPE     H18Z     HAL3     0.900000E-01   1.00800           0
     18217 MEMB     147      DOPE     N        NH3L    -0.300000       14.0070           0
     18218 MEMB     147      DOPE     HN1      HCL      0.330000       1.00800           0
     18219 MEMB     147      DOPE     HN2      HCL      0.330000       1.00800           0
     18220 MEMB     147      DOPE     HN3      HCL      0.330000       1.00800           0
     18221 MEMB     147      DOPE     C12      CTL2     0.130000       12.0110           0
     18222 MEMB     147      DOPE     H12A     HAL2     0.900000E-01   1.00800           0
     18223 MEMB     147      DOPE     H12B     HAL2     0.900000E-01   1.00800           0
     18224 MEMB     147      DOPE     C11      CTL2    -0.800000E-01   12.0110           0
     18225 MEMB     147      DOPE     H11A     HAL2     0.900000E-01   1.00800           0
     18226 MEMB     147      DOPE     H11B     HAL2     0.900000E-01   1.00800           0
     18227 MEMB     147      DOPE     P        PL        1.50000       30.9740           0
     18228 MEMB     147      DOPE     O13      O2L     -0.780000       15.9994           0
     18229 MEMB     147      DOPE     O14      O2L     -0.780000       15.9994           0
     18230 MEMB     147      DOPE     O11      OSLP    -0.570000       15.9994           0
     18231 MEMB     147      DOPE     O12      OSLP    -0.570000       15.9994           0
     18232 MEMB     147      DOPE     C1       CTL2    -0.800000E-01   12.0110           0
     18233 MEMB     147      DOPE     HA       HAL2     0.900000E-01   1.00800           0
     18234 MEMB     147      DOPE     HB       HAL2     0.900000E-01   1.00800           0
     18235 MEMB     147      DOPE     C2       CTL1     0.170000       12.0110           0
     18236 MEMB     147      DOPE     HS       HAL1     0.900000E-01   1.00800           0
     18237 MEMB     147      DOPE     O21      OSL     -0.490000       15.9994           0
     18238 MEMB     147      DOPE     C21      CL       0.900000       12.0110           0
     18239 MEMB     147      DOPE     O22      OBL     -0.630000       15.9994           0
     18240 MEMB     147      DOPE     C22      CTL2    -0.220000       12.0110           0
     18241 MEMB     147      DOPE     H2R      HAL2     0.900000E-01   1.00800           0
     18242 MEMB     147      DOPE     H2S      HAL2     0.900000E-01   1.00800           0
     18243 MEMB     147      DOPE     C3       CTL2     0.800000E-01   12.0110           0
     18244 MEMB     147      DOPE     HX       HAL2     0.900000E-01   1.00800           0
     18245 MEMB     147      DOPE     HY       HAL2     0.900000E-01   1.00800           0
     18246 MEMB     147      DOPE     O31      OSL     -0.490000       15.9994           0
     18247 MEMB     147      DOPE     C31      CL       0.900000       12.0110           0
     18248 MEMB     147      DOPE     O32      OBL     -0.630000       15.9994           0
     18249 MEMB     147      DOPE     C32      CTL2    -0.220000       12.0110           0
     18250 MEMB     147      DOPE     H2X      HAL2     0.900000E-01   1.00800           0
     18251 MEMB     147      DOPE     H2Y      HAL2     0.900000E-01   1.00800           0
     18252 MEMB     147      DOPE     C23      CTL2    -0.180000       12.0110           0
     18253 MEMB     147      DOPE     H3R      HAL2     0.900000E-01   1.00800           0
     18254 MEMB     147      DOPE     H3S      HAL2     0.900000E-01   1.00800           0
     18255 MEMB     147      DOPE     C24      CTL2    -0.180000       12.0110           0
     18256 MEMB     147      DOPE     H4R      HAL2     0.900000E-01   1.00800           0
     18257 MEMB     147      DOPE     H4S      HAL2     0.900000E-01   1.00800           0
     18258 MEMB     147      DOPE     C25      CTL2    -0.180000       12.0110           0
     18259 MEMB     147      DOPE     H5R      HAL2     0.900000E-01   1.00800           0
     18260 MEMB     147      DOPE     H5S      HAL2     0.900000E-01   1.00800           0
     18261 MEMB     147      DOPE     C26      CTL2    -0.180000       12.0110           0
     18262 MEMB     147      DOPE     H6R      HAL2     0.900000E-01   1.00800           0
     18263 MEMB     147      DOPE     H6S      HAL2     0.900000E-01   1.00800           0
     18264 MEMB     147      DOPE     C27      CTL2    -0.180000       12.0110           0
     18265 MEMB     147      DOPE     H7R      HAL2     0.900000E-01   1.00800           0
     18266 MEMB     147      DOPE     H7S      HAL2     0.900000E-01   1.00800           0
     18267 MEMB     147      DOPE     C28      CTL2    -0.180000       12.0110           0
     18268 MEMB     147      DOPE     H8R      HAL2     0.900000E-01   1.00800           0
     18269 MEMB     147      DOPE     H8S      HAL2     0.900000E-01   1.00800           0
     18270 MEMB     147      DOPE     C29      CEL1    -0.150000       12.0110           0
     18271 MEMB     147      DOPE     H9R      HEL1     0.150000       1.00800           0
     18272 MEMB     147      DOPE     C210     CEL1    -0.150000       12.0110           0
     18273 MEMB     147      DOPE     H10R     HEL1     0.150000       1.00800           0
     18274 MEMB     147      DOPE     C211     CTL2    -0.180000       12.0110           0
     18275 MEMB     147      DOPE     H11R     HAL2     0.900000E-01   1.00800           0
     18276 MEMB     147      DOPE     H11S     HAL2     0.900000E-01   1.00800           0
     18277 MEMB     147      DOPE     C212     CTL2    -0.180000       12.0110           0
     18278 MEMB     147      DOPE     H12R     HAL2     0.900000E-01   1.00800           0
     18279 MEMB     147      DOPE     H12S     HAL2     0.900000E-01   1.00800           0
     18280 MEMB     147      DOPE     C213     CTL2    -0.180000       12.0110           0
     18281 MEMB     147      DOPE     H13R     HAL2     0.900000E-01   1.00800           0
     18282 MEMB     147      DOPE     H13S     HAL2     0.900000E-01   1.00800           0
     18283 MEMB     147      DOPE     C214     CTL2    -0.180000       12.0110           0
     18284 MEMB     147      DOPE     H14R     HAL2     0.900000E-01   1.00800           0
     18285 MEMB     147      DOPE     H14S     HAL2     0.900000E-01   1.00800           0
     18286 MEMB     147      DOPE     C215     CTL2    -0.180000       12.0110           0
     18287 MEMB     147      DOPE     H15R     HAL2     0.900000E-01   1.00800           0
     18288 MEMB     147      DOPE     H15S     HAL2     0.900000E-01   1.00800           0
     18289 MEMB     147      DOPE     C216     CTL2    -0.180000       12.0110           0
     18290 MEMB     147      DOPE     H16R     HAL2     0.900000E-01   1.00800           0
     18291 MEMB     147      DOPE     H16S     HAL2     0.900000E-01   1.00800           0
     18292 MEMB     147      DOPE     C217     CTL2    -0.180000       12.0110           0
     18293 MEMB     147      DOPE     H17R     HAL2     0.900000E-01   1.00800           0
     18294 MEMB     147      DOPE     H17S     HAL2     0.900000E-01   1.00800           0
     18295 MEMB     147      DOPE     C218     CTL3    -0.270000       12.0110           0
     18296 MEMB     147      DOPE     H18R     HAL3     0.900000E-01   1.00800           0
     18297 MEMB     147      DOPE     H18S     HAL3     0.900000E-01   1.00800           0
     18298 MEMB     147      DOPE     H18T     HAL3     0.900000E-01   1.00800           0
     18299 MEMB     147      DOPE     C33      CTL2    -0.180000       12.0110           0
     18300 MEMB     147      DOPE     H3X      HAL2     0.900000E-01   1.00800           0
     18301 MEMB     147      DOPE     H3Y      HAL2     0.900000E-01   1.00800           0
     18302 MEMB     147      DOPE     C34      CTL2    -0.180000       12.0110           0
     18303 MEMB     147      DOPE     H4X      HAL2     0.900000E-01   1.00800           0
     18304 MEMB     147      DOPE     H4Y      HAL2     0.900000E-01   1.00800           0
     18305 MEMB     147      DOPE     C35      CTL2    -0.180000       12.0110           0
     18306 MEMB     147      DOPE     H5X      HAL2     0.900000E-01   1.00800           0
     18307 MEMB     147      DOPE     H5Y      HAL2     0.900000E-01   1.00800           0
     18308 MEMB     147      DOPE     C36      CTL2    -0.180000       12.0110           0
     18309 MEMB     147      DOPE     H6X      HAL2     0.900000E-01   1.00800           0
     18310 MEMB     147      DOPE     H6Y      HAL2     0.900000E-01   1.00800           0
     18311 MEMB     147      DOPE     C37      CTL2    -0.180000       12.0110           0
     18312 MEMB     147      DOPE     H7X      HAL2     0.900000E-01   1.00800           0
     18313 MEMB     147      DOPE     H7Y      HAL2     0.900000E-01   1.00800           0
     18314 MEMB     147      DOPE     C38      CTL2    -0.180000       12.0110           0
     18315 MEMB     147      DOPE     H8X      HAL2     0.900000E-01   1.00800           0
     18316 MEMB     147      DOPE     H8Y      HAL2     0.900000E-01   1.00800           0
     18317 MEMB     147      DOPE     C39      CEL1    -0.150000       12.0110           0
     18318 MEMB     147      DOPE     H9X      HEL1     0.150000       1.00800           0
     18319 MEMB     147      DOPE     C310     CEL1    -0.150000       12.0110           0
     18320 MEMB     147      DOPE     H10X     HEL1     0.150000       1.00800           0
     18321 MEMB     147      DOPE     C311     CTL2    -0.180000       12.0110           0
     18322 MEMB     147      DOPE     H11X     HAL2     0.900000E-01   1.00800           0
     18323 MEMB     147      DOPE     H11Y     HAL2     0.900000E-01   1.00800           0
     18324 MEMB     147      DOPE     C312     CTL2    -0.180000       12.0110           0
     18325 MEMB     147      DOPE     H12X     HAL2     0.900000E-01   1.00800           0
     18326 MEMB     147      DOPE     H12Y     HAL2     0.900000E-01   1.00800           0
     18327 MEMB     147      DOPE     C313     CTL2    -0.180000       12.0110           0
     18328 MEMB     147      DOPE     H13X     HAL2     0.900000E-01   1.00800           0
     18329 MEMB     147      DOPE     H13Y     HAL2     0.900000E-01   1.00800           0
     18330 MEMB     147      DOPE     C314     CTL2    -0.180000       12.0110           0
     18331 MEMB     147      DOPE     H14X     HAL2     0.900000E-01   1.00800           0
     18332 MEMB     147      DOPE     H14Y     HAL2     0.900000E-01   1.00800           0
     18333 MEMB     147      DOPE     C315     CTL2    -0.180000       12.0110           0
     18334 MEMB     147      DOPE     H15X     HAL2     0.900000E-01   1.00800           0
     18335 MEMB     147      DOPE     H15Y     HAL2     0.900000E-01   1.00800           0
     18336 MEMB     147      DOPE     C316     CTL2    -0.180000       12.0110           0
     18337 MEMB     147      DOPE     H16X     HAL2     0.900000E-01   1.00800           0
     18338 MEMB     147      DOPE     H16Y     HAL2     0.900000E-01   1.00800           0
     18339 MEMB     147      DOPE     C317     CTL2    -0.180000       12.0110           0
     18340 MEMB     147      DOPE     H17X     HAL2     0.900000E-01   1.00800           0
     18341 MEMB     147      DOPE     H17Y     HAL2     0.900000E-01   1.00800           0
     18342 MEMB     147      DOPE     C318     CTL3    -0.270000       12.0110           0
     18343 MEMB     147      DOPE     H18X     HAL3     0.900000E-01   1.00800           0
     18344 MEMB     147      DOPE     H18Y     HAL3     0.900000E-01   1.00800           0
     18345 MEMB     147      DOPE     H18Z     HAL3     0.900000E-01   1.00800           0
     18346 MEMB     148      CHL1     C3       CRL1     0.140000       12.0110           0
     18347 MEMB     148      CHL1     H3       HGA1     0.900000E-01   1.00800           0
     18348 MEMB     148      CHL1     O3       OHL     -0.660000       15.9994           0
     18349 MEMB     148      CHL1     H3'      HOL      0.430000       1.00800           0
     18350 MEMB     148      CHL1     C4       CRL2    -0.180000       12.0110           0
     18351 MEMB     148      CHL1     H4A      HGA2     0.900000E-01   1.00800           0
     18352 MEMB     148      CHL1     H4B      HGA2     0.900000E-01   1.00800           0
     18353 MEMB     148      CHL1     C5       CEL1      0.00000       12.0110           0
     18354 MEMB     148      CHL1     C6       CEL1    -0.150000       12.0110           0
     18355 MEMB     148      CHL1     H6       HEL1     0.150000       1.00800           0
     18356 MEMB     148      CHL1     C7       CRL2    -0.180000       12.0110           0
     18357 MEMB     148      CHL1     H7A      HGA2     0.900000E-01   1.00800           0
     18358 MEMB     148      CHL1     H7B      HGA2     0.900000E-01   1.00800           0
     18359 MEMB     148      CHL1     C8       CRL1    -0.900000E-01   12.0110           0
     18360 MEMB     148      CHL1     H8       HGA1     0.900000E-01   1.00800           0
     18361 MEMB     148      CHL1     C14      CRL1    -0.900000E-01   12.0110           0
     18362 MEMB     148      CHL1     H14      HGA1     0.900000E-01   1.00800           0
     18363 MEMB     148      CHL1     C15      CRL2    -0.180000       12.0110           0
     18364 MEMB     148      CHL1     H15A     HGA2     0.900000E-01   1.00800           0
     18365 MEMB     148      CHL1     H15B     HGA2     0.900000E-01   1.00800           0
     18366 MEMB     148      CHL1     C16      CRL2    -0.180000       12.0110           0
     18367 MEMB     148      CHL1     H16A     HGA2     0.900000E-01   1.00800           0
     18368 MEMB     148      CHL1     H16B     HGA2     0.900000E-01   1.00800           0
     18369 MEMB     148      CHL1     C17      CRL1    -0.900000E-01   12.0110           0
     18370 MEMB     148      CHL1     H17      HGA1     0.900000E-01   1.00800           0
     18371 MEMB     148      CHL1     C13      CRL1      0.00000       12.0110           0
     18372 MEMB     148      CHL1     C18      CTL3    -0.270000       12.0110           0
     18373 MEMB     148      CHL1     H18A     HAL3     0.900000E-01   1.00800           0
     18374 MEMB     148      CHL1     H18B     HAL3     0.900000E-01   1.00800           0
     18375 MEMB     148      CHL1     H18C     HAL3     0.900000E-01   1.00800           0
     18376 MEMB     148      CHL1     C12      CRL2    -0.180000       12.0110           0
     18377 MEMB     148      CHL1     H12A     HGA2     0.900000E-01   1.00800           0
     18378 MEMB     148      CHL1     H12B     HGA2     0.900000E-01   1.00800           0
     18379 MEMB     148      CHL1     C11      CRL2    -0.180000       12.0110           0
     18380 MEMB     148      CHL1     H11A     HGA2     0.900000E-01   1.00800           0
     18381 MEMB     148      CHL1     H11B     HGA2     0.900000E-01   1.00800           0
     18382 MEMB     148      CHL1     C9       CRL1    -0.900000E-01   12.0110           0
     18383 MEMB     148      CHL1     H9       HGA1     0.900000E-01   1.00800           0
     18384 MEMB     148      CHL1     C10      CRL1      0.00000       12.0110           0
     18385 MEMB     148      CHL1     C19      CTL3    -0.270000       12.0110           0
     18386 MEMB     148      CHL1     H19A     HAL3     0.900000E-01   1.00800           0
     18387 MEMB     148      CHL1     H19B     HAL3     0.900000E-01   1.00800           0
     18388 MEMB     148      CHL1     H19C     HAL3     0.900000E-01   1.00800           0
     18389 MEMB     148      CHL1     C1       CRL2    -0.180000       12.0110           0
     18390 MEMB     148      CHL1     H1A      HGA2     0.900000E-01   1.00800           0
     18391 MEMB     148      CHL1     H1B      HGA2     0.900000E-01   1.00800           0
     18392 MEMB     148      CHL1     C2       CRL2    -0.180000       12.0110           0
     18393 MEMB     148      CHL1     H2A      HGA2     0.900000E-01   1.00800           0
     18394 MEMB     148      CHL1     H2B      HGA2     0.900000E-01   1.00800           0
     18395 MEMB     148      CHL1     C20      CTL1    -0.900000E-01   12.0110           0
     18396 MEMB     148      CHL1     H20      HAL1     0.900000E-01   1.00800           0
     18397 MEMB     148      CHL1     C21      CTL3    -0.270000       12.0110           0
     18398 MEMB     148      CHL1     H21A     HAL3     0.900000E-01   1.00800           0
     18399 MEMB     148      CHL1     H21B     HAL3     0.900000E-01   1.00800           0
     18400 MEMB     148      CHL1     H21C     HAL3     0.900000E-01   1.00800           0
     18401 MEMB     148      CHL1     C22      CTL2    -0.180000       12.0110           0
     18402 MEMB     148      CHL1     H22A     HAL2     0.900000E-01   1.00800           0
     18403 MEMB     148      CHL1     H22B     HAL2     0.900000E-01   1.00800           0
     18404 MEMB     148      CHL1     C23      CTL2    -0.180000       12.0110           0
     18405 MEMB     148      CHL1     H23A     HAL2     0.900000E-01   1.00800           0
     18406 MEMB     148      CHL1     H23B     HAL2     0.900000E-01   1.00800           0
     18407 MEMB     148      CHL1     C24      CTL2    -0.180000       12.0110           0
     18408 MEMB     148      CHL1     H24A     HAL2     0.900000E-01   1.00800           0
     18409 MEMB     148      CHL1     H24B     HAL2     0.900000E-01   1.00800           0
     18410 MEMB     148      CHL1     C25      CTL1    -0.900000E-01   12.0110           0
     18411 MEMB     148      CHL1     H25      HAL1     0.900000E-01   1.00800           0
     18412 MEMB     148      CHL1     C26      CTL3    -0.270000       12.0110           0
     18413 MEMB     148      CHL1     H26A     HAL3     0.900000E-01   1.00800           0
     18414 MEMB     148      CHL1     H26B     HAL3     0.900000E-01   1.00800           0
     18415 MEMB     148      CHL1     H26C     HAL3     0.900000E-01   1.00800           0
     18416 MEMB     148      CHL1     C27      CTL3    -0.270000       12.0110           0
     18417 MEMB     148      CHL1     H27A     HAL3     0.900000E-01   1.00800           0
     18418 MEMB     148      CHL1     H27B     HAL3     0.900000E-01   1.00800           0
     18419 MEMB     148      CHL1     H27C     HAL3     0.900000E-01   1.00800           0
     18420 MEMB     149      DOPE     N        NH3L    -0.300000       14.0070           0
     18421 MEMB     149      DOPE     HN1      HCL      0.330000       1.00800           0
     18422 MEMB     149      DOPE     HN2      HCL      0.330000       1.00800           0
     18423 MEMB     149      DOPE     HN3      HCL      0.330000       1.00800           0
     18424 MEMB     149      DOPE     C12      CTL2     0.130000       12.0110           0
     18425 MEMB     149      DOPE     H12A     HAL2     0.900000E-01   1.00800           0
     18426 MEMB     149      DOPE     H12B     HAL2     0.900000E-01   1.00800           0
     18427 MEMB     149      DOPE     C11      CTL2    -0.800000E-01   12.0110           0
     18428 MEMB     149      DOPE     H11A     HAL2     0.900000E-01   1.00800           0
     18429 MEMB     149      DOPE     H11B     HAL2     0.900000E-01   1.00800           0
     18430 MEMB     149      DOPE     P        PL        1.50000       30.9740           0
     18431 MEMB     149      DOPE     O13      O2L     -0.780000       15.9994           0
     18432 MEMB     149      DOPE     O14      O2L     -0.780000       15.9994           0
     18433 MEMB     149      DOPE     O11      OSLP    -0.570000       15.9994           0
     18434 MEMB     149      DOPE     O12      OSLP    -0.570000       15.9994           0
     18435 MEMB     149      DOPE     C1       CTL2    -0.800000E-01   12.0110           0
     18436 MEMB     149      DOPE     HA       HAL2     0.900000E-01   1.00800           0
     18437 MEMB     149      DOPE     HB       HAL2     0.900000E-01   1.00800           0
     18438 MEMB     149      DOPE     C2       CTL1     0.170000       12.0110           0
     18439 MEMB     149      DOPE     HS       HAL1     0.900000E-01   1.00800           0
     18440 MEMB     149      DOPE     O21      OSL     -0.490000       15.9994           0
     18441 MEMB     149      DOPE     C21      CL       0.900000       12.0110           0
     18442 MEMB     149      DOPE     O22      OBL     -0.630000       15.9994           0
     18443 MEMB     149      DOPE     C22      CTL2    -0.220000       12.0110           0
     18444 MEMB     149      DOPE     H2R      HAL2     0.900000E-01   1.00800           0
     18445 MEMB     149      DOPE     H2S      HAL2     0.900000E-01   1.00800           0
     18446 MEMB     149      DOPE     C3       CTL2     0.800000E-01   12.0110           0
     18447 MEMB     149      DOPE     HX       HAL2     0.900000E-01   1.00800           0
     18448 MEMB     149      DOPE     HY       HAL2     0.900000E-01   1.00800           0
     18449 MEMB     149      DOPE     O31      OSL     -0.490000       15.9994           0
     18450 MEMB     149      DOPE     C31      CL       0.900000       12.0110           0
     18451 MEMB     149      DOPE     O32      OBL     -0.630000       15.9994           0
     18452 MEMB     149      DOPE     C32      CTL2    -0.220000       12.0110           0
     18453 MEMB     149      DOPE     H2X      HAL2     0.900000E-01   1.00800           0
     18454 MEMB     149      DOPE     H2Y      HAL2     0.900000E-01   1.00800           0
     18455 MEMB     149      DOPE     C23      CTL2    -0.180000       12.0110           0
     18456 MEMB     149      DOPE     H3R      HAL2     0.900000E-01   1.00800           0
     18457 MEMB     149      DOPE     H3S      HAL2     0.900000E-01   1.00800           0
     18458 MEMB     149      DOPE     C24      CTL2    -0.180000       12.0110           0
     18459 MEMB     149      DOPE     H4R      HAL2     0.900000E-01   1.00800           0
     18460 MEMB     149      DOPE     H4S      HAL2     0.900000E-01   1.00800           0
     18461 MEMB     149      DOPE     C25      CTL2    -0.180000       12.0110           0
     18462 MEMB     149      DOPE     H5R      HAL2     0.900000E-01   1.00800           0
     18463 MEMB     149      DOPE     H5S      HAL2     0.900000E-01   1.00800           0
     18464 MEMB     149      DOPE     C26      CTL2    -0.180000       12.0110           0
     18465 MEMB     149      DOPE     H6R      HAL2     0.900000E-01   1.00800           0
     18466 MEMB     149      DOPE     H6S      HAL2     0.900000E-01   1.00800           0
     18467 MEMB     149      DOPE     C27      CTL2    -0.180000       12.0110           0
     18468 MEMB     149      DOPE     H7R      HAL2     0.900000E-01   1.00800           0
     18469 MEMB     149      DOPE     H7S      HAL2     0.900000E-01   1.00800           0
     18470 MEMB     149      DOPE     C28      CTL2    -0.180000       12.0110           0
     18471 MEMB     149      DOPE     H8R      HAL2     0.900000E-01   1.00800           0
     18472 MEMB     149      DOPE     H8S      HAL2     0.900000E-01   1.00800           0
     18473 MEMB     149      DOPE     C29      CEL1    -0.150000       12.0110           0
     18474 MEMB     149      DOPE     H9R      HEL1     0.150000       1.00800           0
     18475 MEMB     149      DOPE     C210     CEL1    -0.150000       12.0110           0
     18476 MEMB     149      DOPE     H10R     HEL1     0.150000       1.00800           0
     18477 MEMB     149      DOPE     C211     CTL2    -0.180000       12.0110           0
     18478 MEMB     149      DOPE     H11R     HAL2     0.900000E-01   1.00800           0
     18479 MEMB     149      DOPE     H11S     HAL2     0.900000E-01   1.00800           0
     18480 MEMB     149      DOPE     C212     CTL2    -0.180000       12.0110           0
     18481 MEMB     149      DOPE     H12R     HAL2     0.900000E-01   1.00800           0
     18482 MEMB     149      DOPE     H12S     HAL2     0.900000E-01   1.00800           0
     18483 MEMB     149      DOPE     C213     CTL2    -0.180000       12.0110           0
     18484 MEMB     149      DOPE     H13R     HAL2     0.900000E-01   1.00800           0
     18485 MEMB     149      DOPE     H13S     HAL2     0.900000E-01   1.00800           0
     18486 MEMB     149      DOPE     C214     CTL2    -0.180000       12.0110           0
     18487 MEMB     149      DOPE     H14R     HAL2     0.900000E-01   1.00800           0
     18488 MEMB     149      DOPE     H14S     HAL2     0.900000E-01   1.00800           0
     18489 MEMB     149      DOPE     C215     CTL2    -0.180000       12.0110           0
     18490 MEMB     149      DOPE     H15R     HAL2     0.900000E-01   1.00800           0
     18491 MEMB     149      DOPE     H15S     HAL2     0.900000E-01   1.00800           0
     18492 MEMB     149      DOPE     C216     CTL2    -0.180000       12.0110           0
     18493 MEMB     149      DOPE     H16R     HAL2     0.900000E-01   1.00800           0
     18494 MEMB     149      DOPE     H16S     HAL2     0.900000E-01   1.00800           0
     18495 MEMB     149      DOPE     C217     CTL2    -0.180000       12.0110           0
     18496 MEMB     149      DOPE     H17R     HAL2     0.900000E-01   1.00800           0
     18497 MEMB     149      DOPE     H17S     HAL2     0.900000E-01   1.00800           0
     18498 MEMB     149      DOPE     C218     CTL3    -0.270000       12.0110           0
     18499 MEMB     149      DOPE     H18R     HAL3     0.900000E-01   1.00800           0
     18500 MEMB     149      DOPE     H18S     HAL3     0.900000E-01   1.00800           0
     18501 MEMB     149      DOPE     H18T     HAL3     0.900000E-01   1.00800           0
     18502 MEMB     149      DOPE     C33      CTL2    -0.180000       12.0110           0
     18503 MEMB     149      DOPE     H3X      HAL2     0.900000E-01   1.00800           0
     18504 MEMB     149      DOPE     H3Y      HAL2     0.900000E-01   1.00800           0
     18505 MEMB     149      DOPE     C34      CTL2    -0.180000       12.0110           0
     18506 MEMB     149      DOPE     H4X      HAL2     0.900000E-01   1.00800           0
     18507 MEMB     149      DOPE     H4Y      HAL2     0.900000E-01   1.00800           0
     18508 MEMB     149      DOPE     C35      CTL2    -0.180000       12.0110           0
     18509 MEMB     149      DOPE     H5X      HAL2     0.900000E-01   1.00800           0
     18510 MEMB     149      DOPE     H5Y      HAL2     0.900000E-01   1.00800           0
     18511 MEMB     149      DOPE     C36      CTL2    -0.180000       12.0110           0
     18512 MEMB     149      DOPE     H6X      HAL2     0.900000E-01   1.00800           0
     18513 MEMB     149      DOPE     H6Y      HAL2     0.900000E-01   1.00800           0
     18514 MEMB     149      DOPE     C37      CTL2    -0.180000       12.0110           0
     18515 MEMB     149      DOPE     H7X      HAL2     0.900000E-01   1.00800           0
     18516 MEMB     149      DOPE     H7Y      HAL2     0.900000E-01   1.00800           0
     18517 MEMB     149      DOPE     C38      CTL2    -0.180000       12.0110           0
     18518 MEMB     149      DOPE     H8X      HAL2     0.900000E-01   1.00800           0
     18519 MEMB     149      DOPE     H8Y      HAL2     0.900000E-01   1.00800           0
     18520 MEMB     149      DOPE     C39      CEL1    -0.150000       12.0110           0
     18521 MEMB     149      DOPE     H9X      HEL1     0.150000       1.00800           0
     18522 MEMB     149      DOPE     C310     CEL1    -0.150000       12.0110           0
     18523 MEMB     149      DOPE     H10X     HEL1     0.150000       1.00800           0
     18524 MEMB     149      DOPE     C311     CTL2    -0.180000       12.0110           0
     18525 MEMB     149      DOPE     H11X     HAL2     0.900000E-01   1.00800           0
     18526 MEMB     149      DOPE     H11Y     HAL2     0.900000E-01   1.00800           0
     18527 MEMB     149      DOPE     C312     CTL2    -0.180000       12.0110           0
     18528 MEMB     149      DOPE     H12X     HAL2     0.900000E-01   1.00800           0
     18529 MEMB     149      DOPE     H12Y     HAL2     0.900000E-01   1.00800           0
     18530 MEMB     149      DOPE     C313     CTL2    -0.180000       12.0110           0
     18531 MEMB     149      DOPE     H13X     HAL2     0.900000E-01   1.00800           0
     18532 MEMB     149      DOPE     H13Y     HAL2     0.900000E-01   1.00800           0
     18533 MEMB     149      DOPE     C314     CTL2    -0.180000       12.0110           0
     18534 MEMB     149      DOPE     H14X     HAL2     0.900000E-01   1.00800           0
     18535 MEMB     149      DOPE     H14Y     HAL2     0.900000E-01   1.00800           0
     18536 MEMB     149      DOPE     C315     CTL2    -0.180000       12.0110           0
     18537 MEMB     149      DOPE     H15X     HAL2     0.900000E-01   1.00800           0
     18538 MEMB     149      DOPE     H15Y     HAL2     0.900000E-01   1.00800           0
     18539 MEMB     149      DOPE     C316     CTL2    -0.180000       12.0110           0
     18540 MEMB     149      DOPE     H16X     HAL2     0.900000E-01   1.00800           0
     18541 MEMB     149      DOPE     H16Y     HAL2     0.900000E-01   1.00800           0
     18542 MEMB     149      DOPE     C317     CTL2    -0.180000       12.0110           0
     18543 MEMB     149      DOPE     H17X     HAL2     0.900000E-01   1.00800           0
     18544 MEMB     149      DOPE     H17Y     HAL2     0.900000E-01   1.00800           0
     18545 MEMB     149      DOPE     C318     CTL3    -0.270000       12.0110           0
     18546 MEMB     149      DOPE     H18X     HAL3     0.900000E-01   1.00800           0
     18547 MEMB     149      DOPE     H18Y     HAL3     0.900000E-01   1.00800           0
     18548 MEMB     149      DOPE     H18Z     HAL3     0.900000E-01   1.00800           0
     18549 MEMB     150      23SM     N        NTL     -0.600000       14.0070           0
     18550 MEMB     150      23SM     C15      CTL5    -0.350000       12.0110           0
     18551 MEMB     150      23SM     H15A     HL       0.250000       1.00800           0
     18552 MEMB     150      23SM     H15B     HL       0.250000       1.00800           0
     18553 MEMB     150      23SM     H15C     HL       0.250000       1.00800           0
     18554 MEMB     150      23SM     C14      CTL5    -0.350000       12.0110           0
     18555 MEMB     150      23SM     H14A     HL       0.250000       1.00800           0
     18556 MEMB     150      23SM     H14B     HL       0.250000       1.00800           0
     18557 MEMB     150      23SM     H14C     HL       0.250000       1.00800           0
     18558 MEMB     150      23SM     C13      CTL5    -0.350000       12.0110           0
     18559 MEMB     150      23SM     H13A     HL       0.250000       1.00800           0
     18560 MEMB     150      23SM     H13B     HL       0.250000       1.00800           0
     18561 MEMB     150      23SM     H13C     HL       0.250000       1.00800           0
     18562 MEMB     150      23SM     C12      CTL2    -0.100000       12.0110           0
     18563 MEMB     150      23SM     H12A     HL       0.250000       1.00800           0
     18564 MEMB     150      23SM     H12B     HL       0.250000       1.00800           0
     18565 MEMB     150      23SM     C11      CTL2    -0.800000E-01   12.0110           0
     18566 MEMB     150      23SM     H11A     HAL2     0.900000E-01   1.00800           0
     18567 MEMB     150      23SM     H11B     HAL2     0.900000E-01   1.00800           0
     18568 MEMB     150      23SM     P        PL        1.50000       30.9740           0
     18569 MEMB     150      23SM     O13      O2L     -0.780000       15.9994           0
     18570 MEMB     150      23SM     O14      O2L     -0.780000       15.9994           0
     18571 MEMB     150      23SM     O11      OSLP    -0.570000       15.9994           0
     18572 MEMB     150      23SM     O12      OSLP    -0.570000       15.9994           0
     18573 MEMB     150      23SM     C1S      CTL2    -0.800000E-01   12.0110           0
     18574 MEMB     150      23SM     H1S      HAL2     0.900000E-01   1.00800           0
     18575 MEMB     150      23SM     H1T      HAL2     0.900000E-01   1.00800           0
     18576 MEMB     150      23SM     NF       NHL     -0.700000       14.0070           0
     18577 MEMB     150      23SM     HNF      H        0.350000       1.00800           0
     18578 MEMB     150      23SM     C2S      CTL1     0.300000       12.0110           0
     18579 MEMB     150      23SM     H2S      HAL1     0.500000E-01   1.00800           0
     18580 MEMB     150      23SM     C3S      CTO1     0.500000       12.0110           0
     18581 MEMB     150      23SM     H3S      HAL1    -0.110000       1.00800           0
     18582 MEMB     150      23SM     O3       OHL     -0.690000       15.9994           0
     18583 MEMB     150      23SM     HO3      HOL      0.300000       1.00800           0
     18584 MEMB     150      23SM     C4S      CEL3    -0.150000       12.0110           0
     18585 MEMB     150      23SM     H4S      HEL1     0.150000       1.00800           0
     18586 MEMB     150      23SM     C5S      CEL3    -0.150000       12.0110           0
     18587 MEMB     150      23SM     H5S      HEL1     0.150000       1.00800           0
     18588 MEMB     150      23SM     C6S      CTL2    -0.180000       12.0110           0
     18589 MEMB     150      23SM     H6S      HAL2     0.900000E-01   1.00800           0
     18590 MEMB     150      23SM     H6T      HAL2     0.900000E-01   1.00800           0
     18591 MEMB     150      23SM     C7S      CTL2    -0.180000       12.0110           0
     18592 MEMB     150      23SM     H7S      HAL2     0.900000E-01   1.00800           0
     18593 MEMB     150      23SM     H7T      HAL2     0.900000E-01   1.00800           0
     18594 MEMB     150      23SM     C8S      CTL2    -0.180000       12.0110           0
     18595 MEMB     150      23SM     H8S      HAL2     0.900000E-01   1.00800           0
     18596 MEMB     150      23SM     H8T      HAL2     0.900000E-01   1.00800           0
     18597 MEMB     150      23SM     C9S      CTL2    -0.180000       12.0110           0
     18598 MEMB     150      23SM     H9S      HAL2     0.900000E-01   1.00800           0
     18599 MEMB     150      23SM     H9T      HAL2     0.900000E-01   1.00800           0
     18600 MEMB     150      23SM     C10S     CTL2    -0.180000       12.0110           0
     18601 MEMB     150      23SM     H10S     HAL2     0.900000E-01   1.00800           0
     18602 MEMB     150      23SM     H10T     HAL2     0.900000E-01   1.00800           0
     18603 MEMB     150      23SM     C11S     CTL2    -0.180000       12.0110           0
     18604 MEMB     150      23SM     H11S     HAL2     0.900000E-01   1.00800           0
     18605 MEMB     150      23SM     H11T     HAL2     0.900000E-01   1.00800           0
     18606 MEMB     150      23SM     C12S     CTL2    -0.180000       12.0110           0
     18607 MEMB     150      23SM     H12S     HAL2     0.900000E-01   1.00800           0
     18608 MEMB     150      23SM     H12T     HAL2     0.900000E-01   1.00800           0
     18609 MEMB     150      23SM     C13S     CTL2    -0.180000       12.0110           0
     18610 MEMB     150      23SM     H13S     HAL2     0.900000E-01   1.00800           0
     18611 MEMB     150      23SM     H13T     HAL2     0.900000E-01   1.00800           0
     18612 MEMB     150      23SM     C14S     CTL2    -0.180000       12.0110           0
     18613 MEMB     150      23SM     H14S     HAL2     0.900000E-01   1.00800           0
     18614 MEMB     150      23SM     H14T     HAL2     0.900000E-01   1.00800           0
     18615 MEMB     150      23SM     C15S     CTL2    -0.180000       12.0110           0
     18616 MEMB     150      23SM     H15S     HAL2     0.900000E-01   1.00800           0
     18617 MEMB     150      23SM     H15T     HAL2     0.900000E-01   1.00800           0
     18618 MEMB     150      23SM     C16S     CTL2    -0.180000       12.0110           0
     18619 MEMB     150      23SM     H16S     HAL2     0.900000E-01   1.00800           0
     18620 MEMB     150      23SM     H16T     HAL2     0.900000E-01   1.00800           0
     18621 MEMB     150      23SM     C17S     CTL2    -0.180000       12.0110           0
     18622 MEMB     150      23SM     H17S     HAL2     0.900000E-01   1.00800           0
     18623 MEMB     150      23SM     H17T     HAL2     0.900000E-01   1.00800           0
     18624 MEMB     150      23SM     C18S     CTL3    -0.270000       12.0110           0
     18625 MEMB     150      23SM     H18S     HAL3     0.900000E-01   1.00800           0
     18626 MEMB     150      23SM     H18T     HAL3     0.900000E-01   1.00800           0
     18627 MEMB     150      23SM     H18U     HAL3     0.900000E-01   1.00800           0
     18628 MEMB     150      23SM     C1F      C        0.550000       12.0110           0
     18629 MEMB     150      23SM     OF       O       -0.600000       15.9994           0
     18630 MEMB     150      23SM     C2F      CTL2    -0.700000E-01   12.0110           0
     18631 MEMB     150      23SM     H2F      HAL2     0.600000E-01   1.00800           0
     18632 MEMB     150      23SM     H2G      HAL2     0.600000E-01   1.00800           0
     18633 MEMB     150      23SM     C3F      CTL2    -0.180000       12.0110           0
     18634 MEMB     150      23SM     H3F      HAL2     0.900000E-01   1.00800           0
     18635 MEMB     150      23SM     H3G      HAL2     0.900000E-01   1.00800           0
     18636 MEMB     150      23SM     C4F      CTL2    -0.180000       12.0110           0
     18637 MEMB     150      23SM     H4F      HAL2     0.900000E-01   1.00800           0
     18638 MEMB     150      23SM     H4G      HAL2     0.900000E-01   1.00800           0
     18639 MEMB     150      23SM     C5F      CTL2    -0.180000       12.0110           0
     18640 MEMB     150      23SM     H5F      HAL2     0.900000E-01   1.00800           0
     18641 MEMB     150      23SM     H5G      HAL2     0.900000E-01   1.00800           0
     18642 MEMB     150      23SM     C6F      CTL2    -0.180000       12.0110           0
     18643 MEMB     150      23SM     H6F      HAL2     0.900000E-01   1.00800           0
     18644 MEMB     150      23SM     H6G      HAL2     0.900000E-01   1.00800           0
     18645 MEMB     150      23SM     C7F      CTL2    -0.180000       12.0110           0
     18646 MEMB     150      23SM     H7F      HAL2     0.900000E-01   1.00800           0
     18647 MEMB     150      23SM     H7G      HAL2     0.900000E-01   1.00800           0
     18648 MEMB     150      23SM     C8F      CTL2    -0.180000       12.0110           0
     18649 MEMB     150      23SM     H8F      HAL2     0.900000E-01   1.00800           0
     18650 MEMB     150      23SM     H8G      HAL2     0.900000E-01   1.00800           0
     18651 MEMB     150      23SM     C9F      CTL2    -0.180000       12.0110           0
     18652 MEMB     150      23SM     H9F      HAL2     0.900000E-01   1.00800           0
     18653 MEMB     150      23SM     H9G      HAL2     0.900000E-01   1.00800           0
     18654 MEMB     150      23SM     C10F     CTL2    -0.180000       12.0110           0
     18655 MEMB     150      23SM     H10F     HAL2     0.900000E-01   1.00800           0
     18656 MEMB     150      23SM     H10G     HAL2     0.900000E-01   1.00800           0
     18657 MEMB     150      23SM     C11F     CTL2    -0.180000       12.0110           0
     18658 MEMB     150      23SM     H11F     HAL2     0.900000E-01   1.00800           0
     18659 MEMB     150      23SM     H11G     HAL2     0.900000E-01   1.00800           0
     18660 MEMB     150      23SM     C12F     CTL2    -0.180000       12.0110           0
     18661 MEMB     150      23SM     H12F     HAL2     0.900000E-01   1.00800           0
     18662 MEMB     150      23SM     H12G     HAL2     0.900000E-01   1.00800           0
     18663 MEMB     150      23SM     C13F     CTL2    -0.180000       12.0110           0
     18664 MEMB     150      23SM     H13F     HAL2     0.900000E-01   1.00800           0
     18665 MEMB     150      23SM     H13G     HAL2     0.900000E-01   1.00800           0
     18666 MEMB     150      23SM     C14F     CTL2    -0.180000       12.0110           0
     18667 MEMB     150      23SM     H14F     HAL2     0.900000E-01   1.00800           0
     18668 MEMB     150      23SM     H14G     HAL2     0.900000E-01   1.00800           0
     18669 MEMB     150      23SM     C15F     CTL2    -0.180000       12.0110           0
     18670 MEMB     150      23SM     H15F     HAL2     0.900000E-01   1.00800           0
     18671 MEMB     150      23SM     H15G     HAL2     0.900000E-01   1.00800           0
     18672 MEMB     150      23SM     C16F     CTL2    -0.180000       12.0110           0
     18673 MEMB     150      23SM     H16F     HAL2     0.900000E-01   1.00800           0
     18674 MEMB     150      23SM     H16G     HAL2     0.900000E-01   1.00800           0
     18675 MEMB     150      23SM     C17F     CTL2    -0.180000       12.0110           0
     18676 MEMB     150      23SM     H17F     HAL2     0.900000E-01   1.00800           0
     18677 MEMB     150      23SM     H17G     HAL2     0.900000E-01   1.00800           0
     18678 MEMB     150      23SM     C18F     CTL2    -0.180000       12.0110           0
     18679 MEMB     150      23SM     H18F     HAL2     0.900000E-01   1.00800           0
     18680 MEMB     150      23SM     H18G     HAL2     0.900000E-01   1.00800           0
     18681 MEMB     150      23SM     C19F     CTL2    -0.180000       12.0110           0
     18682 MEMB     150      23SM     H19F     HAL2     0.900000E-01   1.00800           0
     18683 MEMB     150      23SM     H19G     HAL2     0.900000E-01   1.00800           0
     18684 MEMB     150      23SM     C20F     CTL2    -0.180000       12.0110           0
     18685 MEMB     150      23SM     H20F     HAL2     0.900000E-01   1.00800           0
     18686 MEMB     150      23SM     H20G     HAL2     0.900000E-01   1.00800           0
     18687 MEMB     150      23SM     C21F     CTL2    -0.180000       12.0110           0
     18688 MEMB     150      23SM     H21F     HAL2     0.900000E-01   1.00800           0
     18689 MEMB     150      23SM     H21G     HAL2     0.900000E-01   1.00800           0
     18690 MEMB     150      23SM     C22F     CTL2    -0.180000       12.0110           0
     18691 MEMB     150      23SM     H22F     HAL2     0.900000E-01   1.00800           0
     18692 MEMB     150      23SM     H22G     HAL2     0.900000E-01   1.00800           0
     18693 MEMB     150      23SM     C23F     CTL3    -0.270000       12.0110           0
     18694 MEMB     150      23SM     H23F     HAL3     0.900000E-01   1.00800           0
     18695 MEMB     150      23SM     H23G     HAL3     0.900000E-01   1.00800           0
     18696 MEMB     150      23SM     H23H     HAL3     0.900000E-01   1.00800           0
     18697 MEMB     151      DOPC     N        NTL     -0.600000       14.0070           0
     18698 MEMB     151      DOPC     C12      CTL2    -0.100000       12.0110           0
     18699 MEMB     151      DOPC     H12A     HL       0.250000       1.00800           0
     18700 MEMB     151      DOPC     H12B     HL       0.250000       1.00800           0
     18701 MEMB     151      DOPC     C13      CTL5    -0.350000       12.0110           0
     18702 MEMB     151      DOPC     H13A     HL       0.250000       1.00800           0
     18703 MEMB     151      DOPC     H13B     HL       0.250000       1.00800           0
     18704 MEMB     151      DOPC     H13C     HL       0.250000       1.00800           0
     18705 MEMB     151      DOPC     C14      CTL5    -0.350000       12.0110           0
     18706 MEMB     151      DOPC     H14A     HL       0.250000       1.00800           0
     18707 MEMB     151      DOPC     H14B     HL       0.250000       1.00800           0
     18708 MEMB     151      DOPC     H14C     HL       0.250000       1.00800           0
     18709 MEMB     151      DOPC     C15      CTL5    -0.350000       12.0110           0
     18710 MEMB     151      DOPC     H15A     HL       0.250000       1.00800           0
     18711 MEMB     151      DOPC     H15B     HL       0.250000       1.00800           0
     18712 MEMB     151      DOPC     H15C     HL       0.250000       1.00800           0
     18713 MEMB     151      DOPC     C11      CTL2    -0.800000E-01   12.0110           0
     18714 MEMB     151      DOPC     H11A     HAL2     0.900000E-01   1.00800           0
     18715 MEMB     151      DOPC     H11B     HAL2     0.900000E-01   1.00800           0
     18716 MEMB     151      DOPC     P        PL        1.50000       30.9740           0
     18717 MEMB     151      DOPC     O13      O2L     -0.780000       15.9994           0
     18718 MEMB     151      DOPC     O14      O2L     -0.780000       15.9994           0
     18719 MEMB     151      DOPC     O12      OSLP    -0.570000       15.9994           0
     18720 MEMB     151      DOPC     O11      OSLP    -0.570000       15.9994           0
     18721 MEMB     151      DOPC     C1       CTL2    -0.800000E-01   12.0110           0
     18722 MEMB     151      DOPC     HA       HAL2     0.900000E-01   1.00800           0
     18723 MEMB     151      DOPC     HB       HAL2     0.900000E-01   1.00800           0
     18724 MEMB     151      DOPC     C2       CTL1     0.170000       12.0110           0
     18725 MEMB     151      DOPC     HS       HAL1     0.900000E-01   1.00800           0
     18726 MEMB     151      DOPC     O21      OSL     -0.490000       15.9994           0
     18727 MEMB     151      DOPC     C21      CL       0.900000       12.0110           0
     18728 MEMB     151      DOPC     O22      OBL     -0.630000       15.9994           0
     18729 MEMB     151      DOPC     C22      CTL2    -0.220000       12.0110           0
     18730 MEMB     151      DOPC     H2R      HAL2     0.900000E-01   1.00800           0
     18731 MEMB     151      DOPC     H2S      HAL2     0.900000E-01   1.00800           0
     18732 MEMB     151      DOPC     C3       CTL2     0.800000E-01   12.0110           0
     18733 MEMB     151      DOPC     HX       HAL2     0.900000E-01   1.00800           0
     18734 MEMB     151      DOPC     HY       HAL2     0.900000E-01   1.00800           0
     18735 MEMB     151      DOPC     O31      OSL     -0.490000       15.9994           0
     18736 MEMB     151      DOPC     C31      CL       0.900000       12.0110           0
     18737 MEMB     151      DOPC     O32      OBL     -0.630000       15.9994           0
     18738 MEMB     151      DOPC     C32      CTL2    -0.220000       12.0110           0
     18739 MEMB     151      DOPC     H2X      HAL2     0.900000E-01   1.00800           0
     18740 MEMB     151      DOPC     H2Y      HAL2     0.900000E-01   1.00800           0
     18741 MEMB     151      DOPC     C23      CTL2    -0.180000       12.0110           0
     18742 MEMB     151      DOPC     H3R      HAL2     0.900000E-01   1.00800           0
     18743 MEMB     151      DOPC     H3S      HAL2     0.900000E-01   1.00800           0
     18744 MEMB     151      DOPC     C24      CTL2    -0.180000       12.0110           0
     18745 MEMB     151      DOPC     H4R      HAL2     0.900000E-01   1.00800           0
     18746 MEMB     151      DOPC     H4S      HAL2     0.900000E-01   1.00800           0
     18747 MEMB     151      DOPC     C25      CTL2    -0.180000       12.0110           0
     18748 MEMB     151      DOPC     H5R      HAL2     0.900000E-01   1.00800           0
     18749 MEMB     151      DOPC     H5S      HAL2     0.900000E-01   1.00800           0
     18750 MEMB     151      DOPC     C26      CTL2    -0.180000       12.0110           0
     18751 MEMB     151      DOPC     H6R      HAL2     0.900000E-01   1.00800           0
     18752 MEMB     151      DOPC     H6S      HAL2     0.900000E-01   1.00800           0
     18753 MEMB     151      DOPC     C27      CTL2    -0.180000       12.0110           0
     18754 MEMB     151      DOPC     H7R      HAL2     0.900000E-01   1.00800           0
     18755 MEMB     151      DOPC     H7S      HAL2     0.900000E-01   1.00800           0
     18756 MEMB     151      DOPC     C28      CTL2    -0.180000       12.0110           0
     18757 MEMB     151      DOPC     H8R      HAL2     0.900000E-01   1.00800           0
     18758 MEMB     151      DOPC     H8S      HAL2     0.900000E-01   1.00800           0
     18759 MEMB     151      DOPC     C29      CEL1    -0.150000       12.0110           0
     18760 MEMB     151      DOPC     H9R      HEL1     0.150000       1.00800           0
     18761 MEMB     151      DOPC     C210     CEL1    -0.150000       12.0110           0
     18762 MEMB     151      DOPC     H10R     HEL1     0.150000       1.00800           0
     18763 MEMB     151      DOPC     C211     CTL2    -0.180000       12.0110           0
     18764 MEMB     151      DOPC     H11R     HAL2     0.900000E-01   1.00800           0
     18765 MEMB     151      DOPC     H11S     HAL2     0.900000E-01   1.00800           0
     18766 MEMB     151      DOPC     C212     CTL2    -0.180000       12.0110           0
     18767 MEMB     151      DOPC     H12R     HAL2     0.900000E-01   1.00800           0
     18768 MEMB     151      DOPC     H12S     HAL2     0.900000E-01   1.00800           0
     18769 MEMB     151      DOPC     C213     CTL2    -0.180000       12.0110           0
     18770 MEMB     151      DOPC     H13R     HAL2     0.900000E-01   1.00800           0
     18771 MEMB     151      DOPC     H13S     HAL2     0.900000E-01   1.00800           0
     18772 MEMB     151      DOPC     C214     CTL2    -0.180000       12.0110           0
     18773 MEMB     151      DOPC     H14R     HAL2     0.900000E-01   1.00800           0
     18774 MEMB     151      DOPC     H14S     HAL2     0.900000E-01   1.00800           0
     18775 MEMB     151      DOPC     C215     CTL2    -0.180000       12.0110           0
     18776 MEMB     151      DOPC     H15R     HAL2     0.900000E-01   1.00800           0
     18777 MEMB     151      DOPC     H15S     HAL2     0.900000E-01   1.00800           0
     18778 MEMB     151      DOPC     C216     CTL2    -0.180000       12.0110           0
     18779 MEMB     151      DOPC     H16R     HAL2     0.900000E-01   1.00800           0
     18780 MEMB     151      DOPC     H16S     HAL2     0.900000E-01   1.00800           0
     18781 MEMB     151      DOPC     C217     CTL2    -0.180000       12.0110           0
     18782 MEMB     151      DOPC     H17R     HAL2     0.900000E-01   1.00800           0
     18783 MEMB     151      DOPC     H17S     HAL2     0.900000E-01   1.00800           0
     18784 MEMB     151      DOPC     C218     CTL3    -0.270000       12.0110           0
     18785 MEMB     151      DOPC     H18R     HAL3     0.900000E-01   1.00800           0
     18786 MEMB     151      DOPC     H18S     HAL3     0.900000E-01   1.00800           0
     18787 MEMB     151      DOPC     H18T     HAL3     0.900000E-01   1.00800           0
     18788 MEMB     151      DOPC     C33      CTL2    -0.180000       12.0110           0
     18789 MEMB     151      DOPC     H3X      HAL2     0.900000E-01   1.00800           0
     18790 MEMB     151      DOPC     H3Y      HAL2     0.900000E-01   1.00800           0
     18791 MEMB     151      DOPC     C34      CTL2    -0.180000       12.0110           0
     18792 MEMB     151      DOPC     H4X      HAL2     0.900000E-01   1.00800           0
     18793 MEMB     151      DOPC     H4Y      HAL2     0.900000E-01   1.00800           0
     18794 MEMB     151      DOPC     C35      CTL2    -0.180000       12.0110           0
     18795 MEMB     151      DOPC     H5X      HAL2     0.900000E-01   1.00800           0
     18796 MEMB     151      DOPC     H5Y      HAL2     0.900000E-01   1.00800           0
     18797 MEMB     151      DOPC     C36      CTL2    -0.180000       12.0110           0
     18798 MEMB     151      DOPC     H6X      HAL2     0.900000E-01   1.00800           0
     18799 MEMB     151      DOPC     H6Y      HAL2     0.900000E-01   1.00800           0
     18800 MEMB     151      DOPC     C37      CTL2    -0.180000       12.0110           0
     18801 MEMB     151      DOPC     H7X      HAL2     0.900000E-01   1.00800           0
     18802 MEMB     151      DOPC     H7Y      HAL2     0.900000E-01   1.00800           0
     18803 MEMB     151      DOPC     C38      CTL2    -0.180000       12.0110           0
     18804 MEMB     151      DOPC     H8X      HAL2     0.900000E-01   1.00800           0
     18805 MEMB     151      DOPC     H8Y      HAL2     0.900000E-01   1.00800           0
     18806 MEMB     151      DOPC     C39      CEL1    -0.150000       12.0110           0
     18807 MEMB     151      DOPC     H9X      HEL1     0.150000       1.00800           0
     18808 MEMB     151      DOPC     C310     CEL1    -0.150000       12.0110           0
     18809 MEMB     151      DOPC     H10X     HEL1     0.150000       1.00800           0
     18810 MEMB     151      DOPC     C311     CTL2    -0.180000       12.0110           0
     18811 MEMB     151      DOPC     H11X     HAL2     0.900000E-01   1.00800           0
     18812 MEMB     151      DOPC     H11Y     HAL2     0.900000E-01   1.00800           0
     18813 MEMB     151      DOPC     C312     CTL2    -0.180000       12.0110           0
     18814 MEMB     151      DOPC     H12X     HAL2     0.900000E-01   1.00800           0
     18815 MEMB     151      DOPC     H12Y     HAL2     0.900000E-01   1.00800           0
     18816 MEMB     151      DOPC     C313     CTL2    -0.180000       12.0110           0
     18817 MEMB     151      DOPC     H13X     HAL2     0.900000E-01   1.00800           0
     18818 MEMB     151      DOPC     H13Y     HAL2     0.900000E-01   1.00800           0
     18819 MEMB     151      DOPC     C314     CTL2    -0.180000       12.0110           0
     18820 MEMB     151      DOPC     H14X     HAL2     0.900000E-01   1.00800           0
     18821 MEMB     151      DOPC     H14Y     HAL2     0.900000E-01   1.00800           0
     18822 MEMB     151      DOPC     C315     CTL2    -0.180000       12.0110           0
     18823 MEMB     151      DOPC     H15X     HAL2     0.900000E-01   1.00800           0
     18824 MEMB     151      DOPC     H15Y     HAL2     0.900000E-01   1.00800           0
     18825 MEMB     151      DOPC     C316     CTL2    -0.180000       12.0110           0
     18826 MEMB     151      DOPC     H16X     HAL2     0.900000E-01   1.00800           0
     18827 MEMB     151      DOPC     H16Y     HAL2     0.900000E-01   1.00800           0
     18828 MEMB     151      DOPC     C317     CTL2    -0.180000       12.0110           0
     18829 MEMB     151      DOPC     H17X     HAL2     0.900000E-01   1.00800           0
     18830 MEMB     151      DOPC     H17Y     HAL2     0.900000E-01   1.00800           0
     18831 MEMB     151      DOPC     C318     CTL3    -0.270000       12.0110           0
     18832 MEMB     151      DOPC     H18X     HAL3     0.900000E-01   1.00800           0
     18833 MEMB     151      DOPC     H18Y     HAL3     0.900000E-01   1.00800           0
     18834 MEMB     151      DOPC     H18Z     HAL3     0.900000E-01   1.00800           0
     18835 MEMB     152      DOPE     N        NH3L    -0.300000       14.0070           0
     18836 MEMB     152      DOPE     HN1      HCL      0.330000       1.00800           0
     18837 MEMB     152      DOPE     HN2      HCL      0.330000       1.00800           0
     18838 MEMB     152      DOPE     HN3      HCL      0.330000       1.00800           0
     18839 MEMB     152      DOPE     C12      CTL2     0.130000       12.0110           0
     18840 MEMB     152      DOPE     H12A     HAL2     0.900000E-01   1.00800           0
     18841 MEMB     152      DOPE     H12B     HAL2     0.900000E-01   1.00800           0
     18842 MEMB     152      DOPE     C11      CTL2    -0.800000E-01   12.0110           0
     18843 MEMB     152      DOPE     H11A     HAL2     0.900000E-01   1.00800           0
     18844 MEMB     152      DOPE     H11B     HAL2     0.900000E-01   1.00800           0
     18845 MEMB     152      DOPE     P        PL        1.50000       30.9740           0
     18846 MEMB     152      DOPE     O13      O2L     -0.780000       15.9994           0
     18847 MEMB     152      DOPE     O14      O2L     -0.780000       15.9994           0
     18848 MEMB     152      DOPE     O11      OSLP    -0.570000       15.9994           0
     18849 MEMB     152      DOPE     O12      OSLP    -0.570000       15.9994           0
     18850 MEMB     152      DOPE     C1       CTL2    -0.800000E-01   12.0110           0
     18851 MEMB     152      DOPE     HA       HAL2     0.900000E-01   1.00800           0
     18852 MEMB     152      DOPE     HB       HAL2     0.900000E-01   1.00800           0
     18853 MEMB     152      DOPE     C2       CTL1     0.170000       12.0110           0
     18854 MEMB     152      DOPE     HS       HAL1     0.900000E-01   1.00800           0
     18855 MEMB     152      DOPE     O21      OSL     -0.490000       15.9994           0
     18856 MEMB     152      DOPE     C21      CL       0.900000       12.0110           0
     18857 MEMB     152      DOPE     O22      OBL     -0.630000       15.9994           0
     18858 MEMB     152      DOPE     C22      CTL2    -0.220000       12.0110           0
     18859 MEMB     152      DOPE     H2R      HAL2     0.900000E-01   1.00800           0
     18860 MEMB     152      DOPE     H2S      HAL2     0.900000E-01   1.00800           0
     18861 MEMB     152      DOPE     C3       CTL2     0.800000E-01   12.0110           0
     18862 MEMB     152      DOPE     HX       HAL2     0.900000E-01   1.00800           0
     18863 MEMB     152      DOPE     HY       HAL2     0.900000E-01   1.00800           0
     18864 MEMB     152      DOPE     O31      OSL     -0.490000       15.9994           0
     18865 MEMB     152      DOPE     C31      CL       0.900000       12.0110           0
     18866 MEMB     152      DOPE     O32      OBL     -0.630000       15.9994           0
     18867 MEMB     152      DOPE     C32      CTL2    -0.220000       12.0110           0
     18868 MEMB     152      DOPE     H2X      HAL2     0.900000E-01   1.00800           0
     18869 MEMB     152      DOPE     H2Y      HAL2     0.900000E-01   1.00800           0
     18870 MEMB     152      DOPE     C23      CTL2    -0.180000       12.0110           0
     18871 MEMB     152      DOPE     H3R      HAL2     0.900000E-01   1.00800           0
     18872 MEMB     152      DOPE     H3S      HAL2     0.900000E-01   1.00800           0
     18873 MEMB     152      DOPE     C24      CTL2    -0.180000       12.0110           0
     18874 MEMB     152      DOPE     H4R      HAL2     0.900000E-01   1.00800           0
     18875 MEMB     152      DOPE     H4S      HAL2     0.900000E-01   1.00800           0
     18876 MEMB     152      DOPE     C25      CTL2    -0.180000       12.0110           0
     18877 MEMB     152      DOPE     H5R      HAL2     0.900000E-01   1.00800           0
     18878 MEMB     152      DOPE     H5S      HAL2     0.900000E-01   1.00800           0
     18879 MEMB     152      DOPE     C26      CTL2    -0.180000       12.0110           0
     18880 MEMB     152      DOPE     H6R      HAL2     0.900000E-01   1.00800           0
     18881 MEMB     152      DOPE     H6S      HAL2     0.900000E-01   1.00800           0
     18882 MEMB     152      DOPE     C27      CTL2    -0.180000       12.0110           0
     18883 MEMB     152      DOPE     H7R      HAL2     0.900000E-01   1.00800           0
     18884 MEMB     152      DOPE     H7S      HAL2     0.900000E-01   1.00800           0
     18885 MEMB     152      DOPE     C28      CTL2    -0.180000       12.0110           0
     18886 MEMB     152      DOPE     H8R      HAL2     0.900000E-01   1.00800           0
     18887 MEMB     152      DOPE     H8S      HAL2     0.900000E-01   1.00800           0
     18888 MEMB     152      DOPE     C29      CEL1    -0.150000       12.0110           0
     18889 MEMB     152      DOPE     H9R      HEL1     0.150000       1.00800           0
     18890 MEMB     152      DOPE     C210     CEL1    -0.150000       12.0110           0
     18891 MEMB     152      DOPE     H10R     HEL1     0.150000       1.00800           0
     18892 MEMB     152      DOPE     C211     CTL2    -0.180000       12.0110           0
     18893 MEMB     152      DOPE     H11R     HAL2     0.900000E-01   1.00800           0
     18894 MEMB     152      DOPE     H11S     HAL2     0.900000E-01   1.00800           0
     18895 MEMB     152      DOPE     C212     CTL2    -0.180000       12.0110           0
     18896 MEMB     152      DOPE     H12R     HAL2     0.900000E-01   1.00800           0
     18897 MEMB     152      DOPE     H12S     HAL2     0.900000E-01   1.00800           0
     18898 MEMB     152      DOPE     C213     CTL2    -0.180000       12.0110           0
     18899 MEMB     152      DOPE     H13R     HAL2     0.900000E-01   1.00800           0
     18900 MEMB     152      DOPE     H13S     HAL2     0.900000E-01   1.00800           0
     18901 MEMB     152      DOPE     C214     CTL2    -0.180000       12.0110           0
     18902 MEMB     152      DOPE     H14R     HAL2     0.900000E-01   1.00800           0
     18903 MEMB     152      DOPE     H14S     HAL2     0.900000E-01   1.00800           0
     18904 MEMB     152      DOPE     C215     CTL2    -0.180000       12.0110           0
     18905 MEMB     152      DOPE     H15R     HAL2     0.900000E-01   1.00800           0
     18906 MEMB     152      DOPE     H15S     HAL2     0.900000E-01   1.00800           0
     18907 MEMB     152      DOPE     C216     CTL2    -0.180000       12.0110           0
     18908 MEMB     152      DOPE     H16R     HAL2     0.900000E-01   1.00800           0
     18909 MEMB     152      DOPE     H16S     HAL2     0.900000E-01   1.00800           0
     18910 MEMB     152      DOPE     C217     CTL2    -0.180000       12.0110           0
     18911 MEMB     152      DOPE     H17R     HAL2     0.900000E-01   1.00800           0
     18912 MEMB     152      DOPE     H17S     HAL2     0.900000E-01   1.00800           0
     18913 MEMB     152      DOPE     C218     CTL3    -0.270000       12.0110           0
     18914 MEMB     152      DOPE     H18R     HAL3     0.900000E-01   1.00800           0
     18915 MEMB     152      DOPE     H18S     HAL3     0.900000E-01   1.00800           0
     18916 MEMB     152      DOPE     H18T     HAL3     0.900000E-01   1.00800           0
     18917 MEMB     152      DOPE     C33      CTL2    -0.180000       12.0110           0
     18918 MEMB     152      DOPE     H3X      HAL2     0.900000E-01   1.00800           0
     18919 MEMB     152      DOPE     H3Y      HAL2     0.900000E-01   1.00800           0
     18920 MEMB     152      DOPE     C34      CTL2    -0.180000       12.0110           0
     18921 MEMB     152      DOPE     H4X      HAL2     0.900000E-01   1.00800           0
     18922 MEMB     152      DOPE     H4Y      HAL2     0.900000E-01   1.00800           0
     18923 MEMB     152      DOPE     C35      CTL2    -0.180000       12.0110           0
     18924 MEMB     152      DOPE     H5X      HAL2     0.900000E-01   1.00800           0
     18925 MEMB     152      DOPE     H5Y      HAL2     0.900000E-01   1.00800           0
     18926 MEMB     152      DOPE     C36      CTL2    -0.180000       12.0110           0
     18927 MEMB     152      DOPE     H6X      HAL2     0.900000E-01   1.00800           0
     18928 MEMB     152      DOPE     H6Y      HAL2     0.900000E-01   1.00800           0
     18929 MEMB     152      DOPE     C37      CTL2    -0.180000       12.0110           0
     18930 MEMB     152      DOPE     H7X      HAL2     0.900000E-01   1.00800           0
     18931 MEMB     152      DOPE     H7Y      HAL2     0.900000E-01   1.00800           0
     18932 MEMB     152      DOPE     C38      CTL2    -0.180000       12.0110           0
     18933 MEMB     152      DOPE     H8X      HAL2     0.900000E-01   1.00800           0
     18934 MEMB     152      DOPE     H8Y      HAL2     0.900000E-01   1.00800           0
     18935 MEMB     152      DOPE     C39      CEL1    -0.150000       12.0110           0
     18936 MEMB     152      DOPE     H9X      HEL1     0.150000       1.00800           0
     18937 MEMB     152      DOPE     C310     CEL1    -0.150000       12.0110           0
     18938 MEMB     152      DOPE     H10X     HEL1     0.150000       1.00800           0
     18939 MEMB     152      DOPE     C311     CTL2    -0.180000       12.0110           0
     18940 MEMB     152      DOPE     H11X     HAL2     0.900000E-01   1.00800           0
     18941 MEMB     152      DOPE     H11Y     HAL2     0.900000E-01   1.00800           0
     18942 MEMB     152      DOPE     C312     CTL2    -0.180000       12.0110           0
     18943 MEMB     152      DOPE     H12X     HAL2     0.900000E-01   1.00800           0
     18944 MEMB     152      DOPE     H12Y     HAL2     0.900000E-01   1.00800           0
     18945 MEMB     152      DOPE     C313     CTL2    -0.180000       12.0110           0
     18946 MEMB     152      DOPE     H13X     HAL2     0.900000E-01   1.00800           0
     18947 MEMB     152      DOPE     H13Y     HAL2     0.900000E-01   1.00800           0
     18948 MEMB     152      DOPE     C314     CTL2    -0.180000       12.0110           0
     18949 MEMB     152      DOPE     H14X     HAL2     0.900000E-01   1.00800           0
     18950 MEMB     152      DOPE     H14Y     HAL2     0.900000E-01   1.00800           0
     18951 MEMB     152      DOPE     C315     CTL2    -0.180000       12.0110           0
     18952 MEMB     152      DOPE     H15X     HAL2     0.900000E-01   1.00800           0
     18953 MEMB     152      DOPE     H15Y     HAL2     0.900000E-01   1.00800           0
     18954 MEMB     152      DOPE     C316     CTL2    -0.180000       12.0110           0
     18955 MEMB     152      DOPE     H16X     HAL2     0.900000E-01   1.00800           0
     18956 MEMB     152      DOPE     H16Y     HAL2     0.900000E-01   1.00800           0
     18957 MEMB     152      DOPE     C317     CTL2    -0.180000       12.0110           0
     18958 MEMB     152      DOPE     H17X     HAL2     0.900000E-01   1.00800           0
     18959 MEMB     152      DOPE     H17Y     HAL2     0.900000E-01   1.00800           0
     18960 MEMB     152      DOPE     C318     CTL3    -0.270000       12.0110           0
     18961 MEMB     152      DOPE     H18X     HAL3     0.900000E-01   1.00800           0
     18962 MEMB     152      DOPE     H18Y     HAL3     0.900000E-01   1.00800           0
     18963 MEMB     152      DOPE     H18Z     HAL3     0.900000E-01   1.00800           0
     18964 MEMB     153      CHL1     C3       CRL1     0.140000       12.0110           0
     18965 MEMB     153      CHL1     H3       HGA1     0.900000E-01   1.00800           0
     18966 MEMB     153      CHL1     O3       OHL     -0.660000       15.9994           0
     18967 MEMB     153      CHL1     H3'      HOL      0.430000       1.00800           0
     18968 MEMB     153      CHL1     C4       CRL2    -0.180000       12.0110           0
     18969 MEMB     153      CHL1     H4A      HGA2     0.900000E-01   1.00800           0
     18970 MEMB     153      CHL1     H4B      HGA2     0.900000E-01   1.00800           0
     18971 MEMB     153      CHL1     C5       CEL1      0.00000       12.0110           0
     18972 MEMB     153      CHL1     C6       CEL1    -0.150000       12.0110           0
     18973 MEMB     153      CHL1     H6       HEL1     0.150000       1.00800           0
     18974 MEMB     153      CHL1     C7       CRL2    -0.180000       12.0110           0
     18975 MEMB     153      CHL1     H7A      HGA2     0.900000E-01   1.00800           0
     18976 MEMB     153      CHL1     H7B      HGA2     0.900000E-01   1.00800           0
     18977 MEMB     153      CHL1     C8       CRL1    -0.900000E-01   12.0110           0
     18978 MEMB     153      CHL1     H8       HGA1     0.900000E-01   1.00800           0
     18979 MEMB     153      CHL1     C14      CRL1    -0.900000E-01   12.0110           0
     18980 MEMB     153      CHL1     H14      HGA1     0.900000E-01   1.00800           0
     18981 MEMB     153      CHL1     C15      CRL2    -0.180000       12.0110           0
     18982 MEMB     153      CHL1     H15A     HGA2     0.900000E-01   1.00800           0
     18983 MEMB     153      CHL1     H15B     HGA2     0.900000E-01   1.00800           0
     18984 MEMB     153      CHL1     C16      CRL2    -0.180000       12.0110           0
     18985 MEMB     153      CHL1     H16A     HGA2     0.900000E-01   1.00800           0
     18986 MEMB     153      CHL1     H16B     HGA2     0.900000E-01   1.00800           0
     18987 MEMB     153      CHL1     C17      CRL1    -0.900000E-01   12.0110           0
     18988 MEMB     153      CHL1     H17      HGA1     0.900000E-01   1.00800           0
     18989 MEMB     153      CHL1     C13      CRL1      0.00000       12.0110           0
     18990 MEMB     153      CHL1     C18      CTL3    -0.270000       12.0110           0
     18991 MEMB     153      CHL1     H18A     HAL3     0.900000E-01   1.00800           0
     18992 MEMB     153      CHL1     H18B     HAL3     0.900000E-01   1.00800           0
     18993 MEMB     153      CHL1     H18C     HAL3     0.900000E-01   1.00800           0
     18994 MEMB     153      CHL1     C12      CRL2    -0.180000       12.0110           0
     18995 MEMB     153      CHL1     H12A     HGA2     0.900000E-01   1.00800           0
     18996 MEMB     153      CHL1     H12B     HGA2     0.900000E-01   1.00800           0
     18997 MEMB     153      CHL1     C11      CRL2    -0.180000       12.0110           0
     18998 MEMB     153      CHL1     H11A     HGA2     0.900000E-01   1.00800           0
     18999 MEMB     153      CHL1     H11B     HGA2     0.900000E-01   1.00800           0
     19000 MEMB     153      CHL1     C9       CRL1    -0.900000E-01   12.0110           0
     19001 MEMB     153      CHL1     H9       HGA1     0.900000E-01   1.00800           0
     19002 MEMB     153      CHL1     C10      CRL1      0.00000       12.0110           0
     19003 MEMB     153      CHL1     C19      CTL3    -0.270000       12.0110           0
     19004 MEMB     153      CHL1     H19A     HAL3     0.900000E-01   1.00800           0
     19005 MEMB     153      CHL1     H19B     HAL3     0.900000E-01   1.00800           0
     19006 MEMB     153      CHL1     H19C     HAL3     0.900000E-01   1.00800           0
     19007 MEMB     153      CHL1     C1       CRL2    -0.180000       12.0110           0
     19008 MEMB     153      CHL1     H1A      HGA2     0.900000E-01   1.00800           0
     19009 MEMB     153      CHL1     H1B      HGA2     0.900000E-01   1.00800           0
     19010 MEMB     153      CHL1     C2       CRL2    -0.180000       12.0110           0
     19011 MEMB     153      CHL1     H2A      HGA2     0.900000E-01   1.00800           0
     19012 MEMB     153      CHL1     H2B      HGA2     0.900000E-01   1.00800           0
     19013 MEMB     153      CHL1     C20      CTL1    -0.900000E-01   12.0110           0
     19014 MEMB     153      CHL1     H20      HAL1     0.900000E-01   1.00800           0
     19015 MEMB     153      CHL1     C21      CTL3    -0.270000       12.0110           0
     19016 MEMB     153      CHL1     H21A     HAL3     0.900000E-01   1.00800           0
     19017 MEMB     153      CHL1     H21B     HAL3     0.900000E-01   1.00800           0
     19018 MEMB     153      CHL1     H21C     HAL3     0.900000E-01   1.00800           0
     19019 MEMB     153      CHL1     C22      CTL2    -0.180000       12.0110           0
     19020 MEMB     153      CHL1     H22A     HAL2     0.900000E-01   1.00800           0
     19021 MEMB     153      CHL1     H22B     HAL2     0.900000E-01   1.00800           0
     19022 MEMB     153      CHL1     C23      CTL2    -0.180000       12.0110           0
     19023 MEMB     153      CHL1     H23A     HAL2     0.900000E-01   1.00800           0
     19024 MEMB     153      CHL1     H23B     HAL2     0.900000E-01   1.00800           0
     19025 MEMB     153      CHL1     C24      CTL2    -0.180000       12.0110           0
     19026 MEMB     153      CHL1     H24A     HAL2     0.900000E-01   1.00800           0
     19027 MEMB     153      CHL1     H24B     HAL2     0.900000E-01   1.00800           0
     19028 MEMB     153      CHL1     C25      CTL1    -0.900000E-01   12.0110           0
     19029 MEMB     153      CHL1     H25      HAL1     0.900000E-01   1.00800           0
     19030 MEMB     153      CHL1     C26      CTL3    -0.270000       12.0110           0
     19031 MEMB     153      CHL1     H26A     HAL3     0.900000E-01   1.00800           0
     19032 MEMB     153      CHL1     H26B     HAL3     0.900000E-01   1.00800           0
     19033 MEMB     153      CHL1     H26C     HAL3     0.900000E-01   1.00800           0
     19034 MEMB     153      CHL1     C27      CTL3    -0.270000       12.0110           0
     19035 MEMB     153      CHL1     H27A     HAL3     0.900000E-01   1.00800           0
     19036 MEMB     153      CHL1     H27B     HAL3     0.900000E-01   1.00800           0
     19037 MEMB     153      CHL1     H27C     HAL3     0.900000E-01   1.00800           0
     19038 MEMB     154      23SM     N        NTL     -0.600000       14.0070           0
     19039 MEMB     154      23SM     C15      CTL5    -0.350000       12.0110           0
     19040 MEMB     154      23SM     H15A     HL       0.250000       1.00800           0
     19041 MEMB     154      23SM     H15B     HL       0.250000       1.00800           0
     19042 MEMB     154      23SM     H15C     HL       0.250000       1.00800           0
     19043 MEMB     154      23SM     C14      CTL5    -0.350000       12.0110           0
     19044 MEMB     154      23SM     H14A     HL       0.250000       1.00800           0
     19045 MEMB     154      23SM     H14B     HL       0.250000       1.00800           0
     19046 MEMB     154      23SM     H14C     HL       0.250000       1.00800           0
     19047 MEMB     154      23SM     C13      CTL5    -0.350000       12.0110           0
     19048 MEMB     154      23SM     H13A     HL       0.250000       1.00800           0
     19049 MEMB     154      23SM     H13B     HL       0.250000       1.00800           0
     19050 MEMB     154      23SM     H13C     HL       0.250000       1.00800           0
     19051 MEMB     154      23SM     C12      CTL2    -0.100000       12.0110           0
     19052 MEMB     154      23SM     H12A     HL       0.250000       1.00800           0
     19053 MEMB     154      23SM     H12B     HL       0.250000       1.00800           0
     19054 MEMB     154      23SM     C11      CTL2    -0.800000E-01   12.0110           0
     19055 MEMB     154      23SM     H11A     HAL2     0.900000E-01   1.00800           0
     19056 MEMB     154      23SM     H11B     HAL2     0.900000E-01   1.00800           0
     19057 MEMB     154      23SM     P        PL        1.50000       30.9740           0
     19058 MEMB     154      23SM     O13      O2L     -0.780000       15.9994           0
     19059 MEMB     154      23SM     O14      O2L     -0.780000       15.9994           0
     19060 MEMB     154      23SM     O11      OSLP    -0.570000       15.9994           0
     19061 MEMB     154      23SM     O12      OSLP    -0.570000       15.9994           0
     19062 MEMB     154      23SM     C1S      CTL2    -0.800000E-01   12.0110           0
     19063 MEMB     154      23SM     H1S      HAL2     0.900000E-01   1.00800           0
     19064 MEMB     154      23SM     H1T      HAL2     0.900000E-01   1.00800           0
     19065 MEMB     154      23SM     NF       NHL     -0.700000       14.0070           0
     19066 MEMB     154      23SM     HNF      H        0.350000       1.00800           0
     19067 MEMB     154      23SM     C2S      CTL1     0.300000       12.0110           0
     19068 MEMB     154      23SM     H2S      HAL1     0.500000E-01   1.00800           0
     19069 MEMB     154      23SM     C3S      CTO1     0.500000       12.0110           0
     19070 MEMB     154      23SM     H3S      HAL1    -0.110000       1.00800           0
     19071 MEMB     154      23SM     O3       OHL     -0.690000       15.9994           0
     19072 MEMB     154      23SM     HO3      HOL      0.300000       1.00800           0
     19073 MEMB     154      23SM     C4S      CEL3    -0.150000       12.0110           0
     19074 MEMB     154      23SM     H4S      HEL1     0.150000       1.00800           0
     19075 MEMB     154      23SM     C5S      CEL3    -0.150000       12.0110           0
     19076 MEMB     154      23SM     H5S      HEL1     0.150000       1.00800           0
     19077 MEMB     154      23SM     C6S      CTL2    -0.180000       12.0110           0
     19078 MEMB     154      23SM     H6S      HAL2     0.900000E-01   1.00800           0
     19079 MEMB     154      23SM     H6T      HAL2     0.900000E-01   1.00800           0
     19080 MEMB     154      23SM     C7S      CTL2    -0.180000       12.0110           0
     19081 MEMB     154      23SM     H7S      HAL2     0.900000E-01   1.00800           0
     19082 MEMB     154      23SM     H7T      HAL2     0.900000E-01   1.00800           0
     19083 MEMB     154      23SM     C8S      CTL2    -0.180000       12.0110           0
     19084 MEMB     154      23SM     H8S      HAL2     0.900000E-01   1.00800           0
     19085 MEMB     154      23SM     H8T      HAL2     0.900000E-01   1.00800           0
     19086 MEMB     154      23SM     C9S      CTL2    -0.180000       12.0110           0
     19087 MEMB     154      23SM     H9S      HAL2     0.900000E-01   1.00800           0
     19088 MEMB     154      23SM     H9T      HAL2     0.900000E-01   1.00800           0
     19089 MEMB     154      23SM     C10S     CTL2    -0.180000       12.0110           0
     19090 MEMB     154      23SM     H10S     HAL2     0.900000E-01   1.00800           0
     19091 MEMB     154      23SM     H10T     HAL2     0.900000E-01   1.00800           0
     19092 MEMB     154      23SM     C11S     CTL2    -0.180000       12.0110           0
     19093 MEMB     154      23SM     H11S     HAL2     0.900000E-01   1.00800           0
     19094 MEMB     154      23SM     H11T     HAL2     0.900000E-01   1.00800           0
     19095 MEMB     154      23SM     C12S     CTL2    -0.180000       12.0110           0
     19096 MEMB     154      23SM     H12S     HAL2     0.900000E-01   1.00800           0
     19097 MEMB     154      23SM     H12T     HAL2     0.900000E-01   1.00800           0
     19098 MEMB     154      23SM     C13S     CTL2    -0.180000       12.0110           0
     19099 MEMB     154      23SM     H13S     HAL2     0.900000E-01   1.00800           0
     19100 MEMB     154      23SM     H13T     HAL2     0.900000E-01   1.00800           0
     19101 MEMB     154      23SM     C14S     CTL2    -0.180000       12.0110           0
     19102 MEMB     154      23SM     H14S     HAL2     0.900000E-01   1.00800           0
     19103 MEMB     154      23SM     H14T     HAL2     0.900000E-01   1.00800           0
     19104 MEMB     154      23SM     C15S     CTL2    -0.180000       12.0110           0
     19105 MEMB     154      23SM     H15S     HAL2     0.900000E-01   1.00800           0
     19106 MEMB     154      23SM     H15T     HAL2     0.900000E-01   1.00800           0
     19107 MEMB     154      23SM     C16S     CTL2    -0.180000       12.0110           0
     19108 MEMB     154      23SM     H16S     HAL2     0.900000E-01   1.00800           0
     19109 MEMB     154      23SM     H16T     HAL2     0.900000E-01   1.00800           0
     19110 MEMB     154      23SM     C17S     CTL2    -0.180000       12.0110           0
     19111 MEMB     154      23SM     H17S     HAL2     0.900000E-01   1.00800           0
     19112 MEMB     154      23SM     H17T     HAL2     0.900000E-01   1.00800           0
     19113 MEMB     154      23SM     C18S     CTL3    -0.270000       12.0110           0
     19114 MEMB     154      23SM     H18S     HAL3     0.900000E-01   1.00800           0
     19115 MEMB     154      23SM     H18T     HAL3     0.900000E-01   1.00800           0
     19116 MEMB     154      23SM     H18U     HAL3     0.900000E-01   1.00800           0
     19117 MEMB     154      23SM     C1F      C        0.550000       12.0110           0
     19118 MEMB     154      23SM     OF       O       -0.600000       15.9994           0
     19119 MEMB     154      23SM     C2F      CTL2    -0.700000E-01   12.0110           0
     19120 MEMB     154      23SM     H2F      HAL2     0.600000E-01   1.00800           0
     19121 MEMB     154      23SM     H2G      HAL2     0.600000E-01   1.00800           0
     19122 MEMB     154      23SM     C3F      CTL2    -0.180000       12.0110           0
     19123 MEMB     154      23SM     H3F      HAL2     0.900000E-01   1.00800           0
     19124 MEMB     154      23SM     H3G      HAL2     0.900000E-01   1.00800           0
     19125 MEMB     154      23SM     C4F      CTL2    -0.180000       12.0110           0
     19126 MEMB     154      23SM     H4F      HAL2     0.900000E-01   1.00800           0
     19127 MEMB     154      23SM     H4G      HAL2     0.900000E-01   1.00800           0
     19128 MEMB     154      23SM     C5F      CTL2    -0.180000       12.0110           0
     19129 MEMB     154      23SM     H5F      HAL2     0.900000E-01   1.00800           0
     19130 MEMB     154      23SM     H5G      HAL2     0.900000E-01   1.00800           0
     19131 MEMB     154      23SM     C6F      CTL2    -0.180000       12.0110           0
     19132 MEMB     154      23SM     H6F      HAL2     0.900000E-01   1.00800           0
     19133 MEMB     154      23SM     H6G      HAL2     0.900000E-01   1.00800           0
     19134 MEMB     154      23SM     C7F      CTL2    -0.180000       12.0110           0
     19135 MEMB     154      23SM     H7F      HAL2     0.900000E-01   1.00800           0
     19136 MEMB     154      23SM     H7G      HAL2     0.900000E-01   1.00800           0
     19137 MEMB     154      23SM     C8F      CTL2    -0.180000       12.0110           0
     19138 MEMB     154      23SM     H8F      HAL2     0.900000E-01   1.00800           0
     19139 MEMB     154      23SM     H8G      HAL2     0.900000E-01   1.00800           0
     19140 MEMB     154      23SM     C9F      CTL2    -0.180000       12.0110           0
     19141 MEMB     154      23SM     H9F      HAL2     0.900000E-01   1.00800           0
     19142 MEMB     154      23SM     H9G      HAL2     0.900000E-01   1.00800           0
     19143 MEMB     154      23SM     C10F     CTL2    -0.180000       12.0110           0
     19144 MEMB     154      23SM     H10F     HAL2     0.900000E-01   1.00800           0
     19145 MEMB     154      23SM     H10G     HAL2     0.900000E-01   1.00800           0
     19146 MEMB     154      23SM     C11F     CTL2    -0.180000       12.0110           0
     19147 MEMB     154      23SM     H11F     HAL2     0.900000E-01   1.00800           0
     19148 MEMB     154      23SM     H11G     HAL2     0.900000E-01   1.00800           0
     19149 MEMB     154      23SM     C12F     CTL2    -0.180000       12.0110           0
     19150 MEMB     154      23SM     H12F     HAL2     0.900000E-01   1.00800           0
     19151 MEMB     154      23SM     H12G     HAL2     0.900000E-01   1.00800           0
     19152 MEMB     154      23SM     C13F     CTL2    -0.180000       12.0110           0
     19153 MEMB     154      23SM     H13F     HAL2     0.900000E-01   1.00800           0
     19154 MEMB     154      23SM     H13G     HAL2     0.900000E-01   1.00800           0
     19155 MEMB     154      23SM     C14F     CTL2    -0.180000       12.0110           0
     19156 MEMB     154      23SM     H14F     HAL2     0.900000E-01   1.00800           0
     19157 MEMB     154      23SM     H14G     HAL2     0.900000E-01   1.00800           0
     19158 MEMB     154      23SM     C15F     CTL2    -0.180000       12.0110           0
     19159 MEMB     154      23SM     H15F     HAL2     0.900000E-01   1.00800           0
     19160 MEMB     154      23SM     H15G     HAL2     0.900000E-01   1.00800           0
     19161 MEMB     154      23SM     C16F     CTL2    -0.180000       12.0110           0
     19162 MEMB     154      23SM     H16F     HAL2     0.900000E-01   1.00800           0
     19163 MEMB     154      23SM     H16G     HAL2     0.900000E-01   1.00800           0
     19164 MEMB     154      23SM     C17F     CTL2    -0.180000       12.0110           0
     19165 MEMB     154      23SM     H17F     HAL2     0.900000E-01   1.00800           0
     19166 MEMB     154      23SM     H17G     HAL2     0.900000E-01   1.00800           0
     19167 MEMB     154      23SM     C18F     CTL2    -0.180000       12.0110           0
     19168 MEMB     154      23SM     H18F     HAL2     0.900000E-01   1.00800           0
     19169 MEMB     154      23SM     H18G     HAL2     0.900000E-01   1.00800           0
     19170 MEMB     154      23SM     C19F     CTL2    -0.180000       12.0110           0
     19171 MEMB     154      23SM     H19F     HAL2     0.900000E-01   1.00800           0
     19172 MEMB     154      23SM     H19G     HAL2     0.900000E-01   1.00800           0
     19173 MEMB     154      23SM     C20F     CTL2    -0.180000       12.0110           0
     19174 MEMB     154      23SM     H20F     HAL2     0.900000E-01   1.00800           0
     19175 MEMB     154      23SM     H20G     HAL2     0.900000E-01   1.00800           0
     19176 MEMB     154      23SM     C21F     CTL2    -0.180000       12.0110           0
     19177 MEMB     154      23SM     H21F     HAL2     0.900000E-01   1.00800           0
     19178 MEMB     154      23SM     H21G     HAL2     0.900000E-01   1.00800           0
     19179 MEMB     154      23SM     C22F     CTL2    -0.180000       12.0110           0
     19180 MEMB     154      23SM     H22F     HAL2     0.900000E-01   1.00800           0
     19181 MEMB     154      23SM     H22G     HAL2     0.900000E-01   1.00800           0
     19182 MEMB     154      23SM     C23F     CTL3    -0.270000       12.0110           0
     19183 MEMB     154      23SM     H23F     HAL3     0.900000E-01   1.00800           0
     19184 MEMB     154      23SM     H23G     HAL3     0.900000E-01   1.00800           0
     19185 MEMB     154      23SM     H23H     HAL3     0.900000E-01   1.00800           0
     19186 MEMB     155      CHL1     C3       CRL1     0.140000       12.0110           0
     19187 MEMB     155      CHL1     H3       HGA1     0.900000E-01   1.00800           0
     19188 MEMB     155      CHL1     O3       OHL     -0.660000       15.9994           0
     19189 MEMB     155      CHL1     H3'      HOL      0.430000       1.00800           0
     19190 MEMB     155      CHL1     C4       CRL2    -0.180000       12.0110           0
     19191 MEMB     155      CHL1     H4A      HGA2     0.900000E-01   1.00800           0
     19192 MEMB     155      CHL1     H4B      HGA2     0.900000E-01   1.00800           0
     19193 MEMB     155      CHL1     C5       CEL1      0.00000       12.0110           0
     19194 MEMB     155      CHL1     C6       CEL1    -0.150000       12.0110           0
     19195 MEMB     155      CHL1     H6       HEL1     0.150000       1.00800           0
     19196 MEMB     155      CHL1     C7       CRL2    -0.180000       12.0110           0
     19197 MEMB     155      CHL1     H7A      HGA2     0.900000E-01   1.00800           0
     19198 MEMB     155      CHL1     H7B      HGA2     0.900000E-01   1.00800           0
     19199 MEMB     155      CHL1     C8       CRL1    -0.900000E-01   12.0110           0
     19200 MEMB     155      CHL1     H8       HGA1     0.900000E-01   1.00800           0
     19201 MEMB     155      CHL1     C14      CRL1    -0.900000E-01   12.0110           0
     19202 MEMB     155      CHL1     H14      HGA1     0.900000E-01   1.00800           0
     19203 MEMB     155      CHL1     C15      CRL2    -0.180000       12.0110           0
     19204 MEMB     155      CHL1     H15A     HGA2     0.900000E-01   1.00800           0
     19205 MEMB     155      CHL1     H15B     HGA2     0.900000E-01   1.00800           0
     19206 MEMB     155      CHL1     C16      CRL2    -0.180000       12.0110           0
     19207 MEMB     155      CHL1     H16A     HGA2     0.900000E-01   1.00800           0
     19208 MEMB     155      CHL1     H16B     HGA2     0.900000E-01   1.00800           0
     19209 MEMB     155      CHL1     C17      CRL1    -0.900000E-01   12.0110           0
     19210 MEMB     155      CHL1     H17      HGA1     0.900000E-01   1.00800           0
     19211 MEMB     155      CHL1     C13      CRL1      0.00000       12.0110           0
     19212 MEMB     155      CHL1     C18      CTL3    -0.270000       12.0110           0
     19213 MEMB     155      CHL1     H18A     HAL3     0.900000E-01   1.00800           0
     19214 MEMB     155      CHL1     H18B     HAL3     0.900000E-01   1.00800           0
     19215 MEMB     155      CHL1     H18C     HAL3     0.900000E-01   1.00800           0
     19216 MEMB     155      CHL1     C12      CRL2    -0.180000       12.0110           0
     19217 MEMB     155      CHL1     H12A     HGA2     0.900000E-01   1.00800           0
     19218 MEMB     155      CHL1     H12B     HGA2     0.900000E-01   1.00800           0
     19219 MEMB     155      CHL1     C11      CRL2    -0.180000       12.0110           0
     19220 MEMB     155      CHL1     H11A     HGA2     0.900000E-01   1.00800           0
     19221 MEMB     155      CHL1     H11B     HGA2     0.900000E-01   1.00800           0
     19222 MEMB     155      CHL1     C9       CRL1    -0.900000E-01   12.0110           0
     19223 MEMB     155      CHL1     H9       HGA1     0.900000E-01   1.00800           0
     19224 MEMB     155      CHL1     C10      CRL1      0.00000       12.0110           0
     19225 MEMB     155      CHL1     C19      CTL3    -0.270000       12.0110           0
     19226 MEMB     155      CHL1     H19A     HAL3     0.900000E-01   1.00800           0
     19227 MEMB     155      CHL1     H19B     HAL3     0.900000E-01   1.00800           0
     19228 MEMB     155      CHL1     H19C     HAL3     0.900000E-01   1.00800           0
     19229 MEMB     155      CHL1     C1       CRL2    -0.180000       12.0110           0
     19230 MEMB     155      CHL1     H1A      HGA2     0.900000E-01   1.00800           0
     19231 MEMB     155      CHL1     H1B      HGA2     0.900000E-01   1.00800           0
     19232 MEMB     155      CHL1     C2       CRL2    -0.180000       12.0110           0
     19233 MEMB     155      CHL1     H2A      HGA2     0.900000E-01   1.00800           0
     19234 MEMB     155      CHL1     H2B      HGA2     0.900000E-01   1.00800           0
     19235 MEMB     155      CHL1     C20      CTL1    -0.900000E-01   12.0110           0
     19236 MEMB     155      CHL1     H20      HAL1     0.900000E-01   1.00800           0
     19237 MEMB     155      CHL1     C21      CTL3    -0.270000       12.0110           0
     19238 MEMB     155      CHL1     H21A     HAL3     0.900000E-01   1.00800           0
     19239 MEMB     155      CHL1     H21B     HAL3     0.900000E-01   1.00800           0
     19240 MEMB     155      CHL1     H21C     HAL3     0.900000E-01   1.00800           0
     19241 MEMB     155      CHL1     C22      CTL2    -0.180000       12.0110           0
     19242 MEMB     155      CHL1     H22A     HAL2     0.900000E-01   1.00800           0
     19243 MEMB     155      CHL1     H22B     HAL2     0.900000E-01   1.00800           0
     19244 MEMB     155      CHL1     C23      CTL2    -0.180000       12.0110           0
     19245 MEMB     155      CHL1     H23A     HAL2     0.900000E-01   1.00800           0
     19246 MEMB     155      CHL1     H23B     HAL2     0.900000E-01   1.00800           0
     19247 MEMB     155      CHL1     C24      CTL2    -0.180000       12.0110           0
     19248 MEMB     155      CHL1     H24A     HAL2     0.900000E-01   1.00800           0
     19249 MEMB     155      CHL1     H24B     HAL2     0.900000E-01   1.00800           0
     19250 MEMB     155      CHL1     C25      CTL1    -0.900000E-01   12.0110           0
     19251 MEMB     155      CHL1     H25      HAL1     0.900000E-01   1.00800           0
     19252 MEMB     155      CHL1     C26      CTL3    -0.270000       12.0110           0
     19253 MEMB     155      CHL1     H26A     HAL3     0.900000E-01   1.00800           0
     19254 MEMB     155      CHL1     H26B     HAL3     0.900000E-01   1.00800           0
     19255 MEMB     155      CHL1     H26C     HAL3     0.900000E-01   1.00800           0
     19256 MEMB     155      CHL1     C27      CTL3    -0.270000       12.0110           0
     19257 MEMB     155      CHL1     H27A     HAL3     0.900000E-01   1.00800           0
     19258 MEMB     155      CHL1     H27B     HAL3     0.900000E-01   1.00800           0
     19259 MEMB     155      CHL1     H27C     HAL3     0.900000E-01   1.00800           0
     19260 MEMB     156      CHL1     C3       CRL1     0.140000       12.0110           0
     19261 MEMB     156      CHL1     H3       HGA1     0.900000E-01   1.00800           0
     19262 MEMB     156      CHL1     O3       OHL     -0.660000       15.9994           0
     19263 MEMB     156      CHL1     H3'      HOL      0.430000       1.00800           0
     19264 MEMB     156      CHL1     C4       CRL2    -0.180000       12.0110           0
     19265 MEMB     156      CHL1     H4A      HGA2     0.900000E-01   1.00800           0
     19266 MEMB     156      CHL1     H4B      HGA2     0.900000E-01   1.00800           0
     19267 MEMB     156      CHL1     C5       CEL1      0.00000       12.0110           0
     19268 MEMB     156      CHL1     C6       CEL1    -0.150000       12.0110           0
     19269 MEMB     156      CHL1     H6       HEL1     0.150000       1.00800           0
     19270 MEMB     156      CHL1     C7       CRL2    -0.180000       12.0110           0
     19271 MEMB     156      CHL1     H7A      HGA2     0.900000E-01   1.00800           0
     19272 MEMB     156      CHL1     H7B      HGA2     0.900000E-01   1.00800           0
     19273 MEMB     156      CHL1     C8       CRL1    -0.900000E-01   12.0110           0
     19274 MEMB     156      CHL1     H8       HGA1     0.900000E-01   1.00800           0
     19275 MEMB     156      CHL1     C14      CRL1    -0.900000E-01   12.0110           0
     19276 MEMB     156      CHL1     H14      HGA1     0.900000E-01   1.00800           0
     19277 MEMB     156      CHL1     C15      CRL2    -0.180000       12.0110           0
     19278 MEMB     156      CHL1     H15A     HGA2     0.900000E-01   1.00800           0
     19279 MEMB     156      CHL1     H15B     HGA2     0.900000E-01   1.00800           0
     19280 MEMB     156      CHL1     C16      CRL2    -0.180000       12.0110           0
     19281 MEMB     156      CHL1     H16A     HGA2     0.900000E-01   1.00800           0
     19282 MEMB     156      CHL1     H16B     HGA2     0.900000E-01   1.00800           0
     19283 MEMB     156      CHL1     C17      CRL1    -0.900000E-01   12.0110           0
     19284 MEMB     156      CHL1     H17      HGA1     0.900000E-01   1.00800           0
     19285 MEMB     156      CHL1     C13      CRL1      0.00000       12.0110           0
     19286 MEMB     156      CHL1     C18      CTL3    -0.270000       12.0110           0
     19287 MEMB     156      CHL1     H18A     HAL3     0.900000E-01   1.00800           0
     19288 MEMB     156      CHL1     H18B     HAL3     0.900000E-01   1.00800           0
     19289 MEMB     156      CHL1     H18C     HAL3     0.900000E-01   1.00800           0
     19290 MEMB     156      CHL1     C12      CRL2    -0.180000       12.0110           0
     19291 MEMB     156      CHL1     H12A     HGA2     0.900000E-01   1.00800           0
     19292 MEMB     156      CHL1     H12B     HGA2     0.900000E-01   1.00800           0
     19293 MEMB     156      CHL1     C11      CRL2    -0.180000       12.0110           0
     19294 MEMB     156      CHL1     H11A     HGA2     0.900000E-01   1.00800           0
     19295 MEMB     156      CHL1     H11B     HGA2     0.900000E-01   1.00800           0
     19296 MEMB     156      CHL1     C9       CRL1    -0.900000E-01   12.0110           0
     19297 MEMB     156      CHL1     H9       HGA1     0.900000E-01   1.00800           0
     19298 MEMB     156      CHL1     C10      CRL1      0.00000       12.0110           0
     19299 MEMB     156      CHL1     C19      CTL3    -0.270000       12.0110           0
     19300 MEMB     156      CHL1     H19A     HAL3     0.900000E-01   1.00800           0
     19301 MEMB     156      CHL1     H19B     HAL3     0.900000E-01   1.00800           0
     19302 MEMB     156      CHL1     H19C     HAL3     0.900000E-01   1.00800           0
     19303 MEMB     156      CHL1     C1       CRL2    -0.180000       12.0110           0
     19304 MEMB     156      CHL1     H1A      HGA2     0.900000E-01   1.00800           0
     19305 MEMB     156      CHL1     H1B      HGA2     0.900000E-01   1.00800           0
     19306 MEMB     156      CHL1     C2       CRL2    -0.180000       12.0110           0
     19307 MEMB     156      CHL1     H2A      HGA2     0.900000E-01   1.00800           0
     19308 MEMB     156      CHL1     H2B      HGA2     0.900000E-01   1.00800           0
     19309 MEMB     156      CHL1     C20      CTL1    -0.900000E-01   12.0110           0
     19310 MEMB     156      CHL1     H20      HAL1     0.900000E-01   1.00800           0
     19311 MEMB     156      CHL1     C21      CTL3    -0.270000       12.0110           0
     19312 MEMB     156      CHL1     H21A     HAL3     0.900000E-01   1.00800           0
     19313 MEMB     156      CHL1     H21B     HAL3     0.900000E-01   1.00800           0
     19314 MEMB     156      CHL1     H21C     HAL3     0.900000E-01   1.00800           0
     19315 MEMB     156      CHL1     C22      CTL2    -0.180000       12.0110           0
     19316 MEMB     156      CHL1     H22A     HAL2     0.900000E-01   1.00800           0
     19317 MEMB     156      CHL1     H22B     HAL2     0.900000E-01   1.00800           0
     19318 MEMB     156      CHL1     C23      CTL2    -0.180000       12.0110           0
     19319 MEMB     156      CHL1     H23A     HAL2     0.900000E-01   1.00800           0
     19320 MEMB     156      CHL1     H23B     HAL2     0.900000E-01   1.00800           0
     19321 MEMB     156      CHL1     C24      CTL2    -0.180000       12.0110           0
     19322 MEMB     156      CHL1     H24A     HAL2     0.900000E-01   1.00800           0
     19323 MEMB     156      CHL1     H24B     HAL2     0.900000E-01   1.00800           0
     19324 MEMB     156      CHL1     C25      CTL1    -0.900000E-01   12.0110           0
     19325 MEMB     156      CHL1     H25      HAL1     0.900000E-01   1.00800           0
     19326 MEMB     156      CHL1     C26      CTL3    -0.270000       12.0110           0
     19327 MEMB     156      CHL1     H26A     HAL3     0.900000E-01   1.00800           0
     19328 MEMB     156      CHL1     H26B     HAL3     0.900000E-01   1.00800           0
     19329 MEMB     156      CHL1     H26C     HAL3     0.900000E-01   1.00800           0
     19330 MEMB     156      CHL1     C27      CTL3    -0.270000       12.0110           0
     19331 MEMB     156      CHL1     H27A     HAL3     0.900000E-01   1.00800           0
     19332 MEMB     156      CHL1     H27B     HAL3     0.900000E-01   1.00800           0
     19333 MEMB     156      CHL1     H27C     HAL3     0.900000E-01   1.00800           0
     19334 MEMB     157      DOPE     N        NH3L    -0.300000       14.0070           0
     19335 MEMB     157      DOPE     HN1      HCL      0.330000       1.00800           0
     19336 MEMB     157      DOPE     HN2      HCL      0.330000       1.00800           0
     19337 MEMB     157      DOPE     HN3      HCL      0.330000       1.00800           0
     19338 MEMB     157      DOPE     C12      CTL2     0.130000       12.0110           0
     19339 MEMB     157      DOPE     H12A     HAL2     0.900000E-01   1.00800           0
     19340 MEMB     157      DOPE     H12B     HAL2     0.900000E-01   1.00800           0
     19341 MEMB     157      DOPE     C11      CTL2    -0.800000E-01   12.0110           0
     19342 MEMB     157      DOPE     H11A     HAL2     0.900000E-01   1.00800           0
     19343 MEMB     157      DOPE     H11B     HAL2     0.900000E-01   1.00800           0
     19344 MEMB     157      DOPE     P        PL        1.50000       30.9740           0
     19345 MEMB     157      DOPE     O13      O2L     -0.780000       15.9994           0
     19346 MEMB     157      DOPE     O14      O2L     -0.780000       15.9994           0
     19347 MEMB     157      DOPE     O11      OSLP    -0.570000       15.9994           0
     19348 MEMB     157      DOPE     O12      OSLP    -0.570000       15.9994           0
     19349 MEMB     157      DOPE     C1       CTL2    -0.800000E-01   12.0110           0
     19350 MEMB     157      DOPE     HA       HAL2     0.900000E-01   1.00800           0
     19351 MEMB     157      DOPE     HB       HAL2     0.900000E-01   1.00800           0
     19352 MEMB     157      DOPE     C2       CTL1     0.170000       12.0110           0
     19353 MEMB     157      DOPE     HS       HAL1     0.900000E-01   1.00800           0
     19354 MEMB     157      DOPE     O21      OSL     -0.490000       15.9994           0
     19355 MEMB     157      DOPE     C21      CL       0.900000       12.0110           0
     19356 MEMB     157      DOPE     O22      OBL     -0.630000       15.9994           0
     19357 MEMB     157      DOPE     C22      CTL2    -0.220000       12.0110           0
     19358 MEMB     157      DOPE     H2R      HAL2     0.900000E-01   1.00800           0
     19359 MEMB     157      DOPE     H2S      HAL2     0.900000E-01   1.00800           0
     19360 MEMB     157      DOPE     C3       CTL2     0.800000E-01   12.0110           0
     19361 MEMB     157      DOPE     HX       HAL2     0.900000E-01   1.00800           0
     19362 MEMB     157      DOPE     HY       HAL2     0.900000E-01   1.00800           0
     19363 MEMB     157      DOPE     O31      OSL     -0.490000       15.9994           0
     19364 MEMB     157      DOPE     C31      CL       0.900000       12.0110           0
     19365 MEMB     157      DOPE     O32      OBL     -0.630000       15.9994           0
     19366 MEMB     157      DOPE     C32      CTL2    -0.220000       12.0110           0
     19367 MEMB     157      DOPE     H2X      HAL2     0.900000E-01   1.00800           0
     19368 MEMB     157      DOPE     H2Y      HAL2     0.900000E-01   1.00800           0
     19369 MEMB     157      DOPE     C23      CTL2    -0.180000       12.0110           0
     19370 MEMB     157      DOPE     H3R      HAL2     0.900000E-01   1.00800           0
     19371 MEMB     157      DOPE     H3S      HAL2     0.900000E-01   1.00800           0
     19372 MEMB     157      DOPE     C24      CTL2    -0.180000       12.0110           0
     19373 MEMB     157      DOPE     H4R      HAL2     0.900000E-01   1.00800           0
     19374 MEMB     157      DOPE     H4S      HAL2     0.900000E-01   1.00800           0
     19375 MEMB     157      DOPE     C25      CTL2    -0.180000       12.0110           0
     19376 MEMB     157      DOPE     H5R      HAL2     0.900000E-01   1.00800           0
     19377 MEMB     157      DOPE     H5S      HAL2     0.900000E-01   1.00800           0
     19378 MEMB     157      DOPE     C26      CTL2    -0.180000       12.0110           0
     19379 MEMB     157      DOPE     H6R      HAL2     0.900000E-01   1.00800           0
     19380 MEMB     157      DOPE     H6S      HAL2     0.900000E-01   1.00800           0
     19381 MEMB     157      DOPE     C27      CTL2    -0.180000       12.0110           0
     19382 MEMB     157      DOPE     H7R      HAL2     0.900000E-01   1.00800           0
     19383 MEMB     157      DOPE     H7S      HAL2     0.900000E-01   1.00800           0
     19384 MEMB     157      DOPE     C28      CTL2    -0.180000       12.0110           0
     19385 MEMB     157      DOPE     H8R      HAL2     0.900000E-01   1.00800           0
     19386 MEMB     157      DOPE     H8S      HAL2     0.900000E-01   1.00800           0
     19387 MEMB     157      DOPE     C29      CEL1    -0.150000       12.0110           0
     19388 MEMB     157      DOPE     H9R      HEL1     0.150000       1.00800           0
     19389 MEMB     157      DOPE     C210     CEL1    -0.150000       12.0110           0
     19390 MEMB     157      DOPE     H10R     HEL1     0.150000       1.00800           0
     19391 MEMB     157      DOPE     C211     CTL2    -0.180000       12.0110           0
     19392 MEMB     157      DOPE     H11R     HAL2     0.900000E-01   1.00800           0
     19393 MEMB     157      DOPE     H11S     HAL2     0.900000E-01   1.00800           0
     19394 MEMB     157      DOPE     C212     CTL2    -0.180000       12.0110           0
     19395 MEMB     157      DOPE     H12R     HAL2     0.900000E-01   1.00800           0
     19396 MEMB     157      DOPE     H12S     HAL2     0.900000E-01   1.00800           0
     19397 MEMB     157      DOPE     C213     CTL2    -0.180000       12.0110           0
     19398 MEMB     157      DOPE     H13R     HAL2     0.900000E-01   1.00800           0
     19399 MEMB     157      DOPE     H13S     HAL2     0.900000E-01   1.00800           0
     19400 MEMB     157      DOPE     C214     CTL2    -0.180000       12.0110           0
     19401 MEMB     157      DOPE     H14R     HAL2     0.900000E-01   1.00800           0
     19402 MEMB     157      DOPE     H14S     HAL2     0.900000E-01   1.00800           0
     19403 MEMB     157      DOPE     C215     CTL2    -0.180000       12.0110           0
     19404 MEMB     157      DOPE     H15R     HAL2     0.900000E-01   1.00800           0
     19405 MEMB     157      DOPE     H15S     HAL2     0.900000E-01   1.00800           0
     19406 MEMB     157      DOPE     C216     CTL2    -0.180000       12.0110           0
     19407 MEMB     157      DOPE     H16R     HAL2     0.900000E-01   1.00800           0
     19408 MEMB     157      DOPE     H16S     HAL2     0.900000E-01   1.00800           0
     19409 MEMB     157      DOPE     C217     CTL2    -0.180000       12.0110           0
     19410 MEMB     157      DOPE     H17R     HAL2     0.900000E-01   1.00800           0
     19411 MEMB     157      DOPE     H17S     HAL2     0.900000E-01   1.00800           0
     19412 MEMB     157      DOPE     C218     CTL3    -0.270000       12.0110           0
     19413 MEMB     157      DOPE     H18R     HAL3     0.900000E-01   1.00800           0
     19414 MEMB     157      DOPE     H18S     HAL3     0.900000E-01   1.00800           0
     19415 MEMB     157      DOPE     H18T     HAL3     0.900000E-01   1.00800           0
     19416 MEMB     157      DOPE     C33      CTL2    -0.180000       12.0110           0
     19417 MEMB     157      DOPE     H3X      HAL2     0.900000E-01   1.00800           0
     19418 MEMB     157      DOPE     H3Y      HAL2     0.900000E-01   1.00800           0
     19419 MEMB     157      DOPE     C34      CTL2    -0.180000       12.0110           0
     19420 MEMB     157      DOPE     H4X      HAL2     0.900000E-01   1.00800           0
     19421 MEMB     157      DOPE     H4Y      HAL2     0.900000E-01   1.00800           0
     19422 MEMB     157      DOPE     C35      CTL2    -0.180000       12.0110           0
     19423 MEMB     157      DOPE     H5X      HAL2     0.900000E-01   1.00800           0
     19424 MEMB     157      DOPE     H5Y      HAL2     0.900000E-01   1.00800           0
     19425 MEMB     157      DOPE     C36      CTL2    -0.180000       12.0110           0
     19426 MEMB     157      DOPE     H6X      HAL2     0.900000E-01   1.00800           0
     19427 MEMB     157      DOPE     H6Y      HAL2     0.900000E-01   1.00800           0
     19428 MEMB     157      DOPE     C37      CTL2    -0.180000       12.0110           0
     19429 MEMB     157      DOPE     H7X      HAL2     0.900000E-01   1.00800           0
     19430 MEMB     157      DOPE     H7Y      HAL2     0.900000E-01   1.00800           0
     19431 MEMB     157      DOPE     C38      CTL2    -0.180000       12.0110           0
     19432 MEMB     157      DOPE     H8X      HAL2     0.900000E-01   1.00800           0
     19433 MEMB     157      DOPE     H8Y      HAL2     0.900000E-01   1.00800           0
     19434 MEMB     157      DOPE     C39      CEL1    -0.150000       12.0110           0
     19435 MEMB     157      DOPE     H9X      HEL1     0.150000       1.00800           0
     19436 MEMB     157      DOPE     C310     CEL1    -0.150000       12.0110           0
     19437 MEMB     157      DOPE     H10X     HEL1     0.150000       1.00800           0
     19438 MEMB     157      DOPE     C311     CTL2    -0.180000       12.0110           0
     19439 MEMB     157      DOPE     H11X     HAL2     0.900000E-01   1.00800           0
     19440 MEMB     157      DOPE     H11Y     HAL2     0.900000E-01   1.00800           0
     19441 MEMB     157      DOPE     C312     CTL2    -0.180000       12.0110           0
     19442 MEMB     157      DOPE     H12X     HAL2     0.900000E-01   1.00800           0
     19443 MEMB     157      DOPE     H12Y     HAL2     0.900000E-01   1.00800           0
     19444 MEMB     157      DOPE     C313     CTL2    -0.180000       12.0110           0
     19445 MEMB     157      DOPE     H13X     HAL2     0.900000E-01   1.00800           0
     19446 MEMB     157      DOPE     H13Y     HAL2     0.900000E-01   1.00800           0
     19447 MEMB     157      DOPE     C314     CTL2    -0.180000       12.0110           0
     19448 MEMB     157      DOPE     H14X     HAL2     0.900000E-01   1.00800           0
     19449 MEMB     157      DOPE     H14Y     HAL2     0.900000E-01   1.00800           0
     19450 MEMB     157      DOPE     C315     CTL2    -0.180000       12.0110           0
     19451 MEMB     157      DOPE     H15X     HAL2     0.900000E-01   1.00800           0
     19452 MEMB     157      DOPE     H15Y     HAL2     0.900000E-01   1.00800           0
     19453 MEMB     157      DOPE     C316     CTL2    -0.180000       12.0110           0
     19454 MEMB     157      DOPE     H16X     HAL2     0.900000E-01   1.00800           0
     19455 MEMB     157      DOPE     H16Y     HAL2     0.900000E-01   1.00800           0
     19456 MEMB     157      DOPE     C317     CTL2    -0.180000       12.0110           0
     19457 MEMB     157      DOPE     H17X     HAL2     0.900000E-01   1.00800           0
     19458 MEMB     157      DOPE     H17Y     HAL2     0.900000E-01   1.00800           0
     19459 MEMB     157      DOPE     C318     CTL3    -0.270000       12.0110           0
     19460 MEMB     157      DOPE     H18X     HAL3     0.900000E-01   1.00800           0
     19461 MEMB     157      DOPE     H18Y     HAL3     0.900000E-01   1.00800           0
     19462 MEMB     157      DOPE     H18Z     HAL3     0.900000E-01   1.00800           0
     19463 MEMB     158      CHL1     C3       CRL1     0.140000       12.0110           0
     19464 MEMB     158      CHL1     H3       HGA1     0.900000E-01   1.00800           0
     19465 MEMB     158      CHL1     O3       OHL     -0.660000       15.9994           0
     19466 MEMB     158      CHL1     H3'      HOL      0.430000       1.00800           0
     19467 MEMB     158      CHL1     C4       CRL2    -0.180000       12.0110           0
     19468 MEMB     158      CHL1     H4A      HGA2     0.900000E-01   1.00800           0
     19469 MEMB     158      CHL1     H4B      HGA2     0.900000E-01   1.00800           0
     19470 MEMB     158      CHL1     C5       CEL1      0.00000       12.0110           0
     19471 MEMB     158      CHL1     C6       CEL1    -0.150000       12.0110           0
     19472 MEMB     158      CHL1     H6       HEL1     0.150000       1.00800           0
     19473 MEMB     158      CHL1     C7       CRL2    -0.180000       12.0110           0
     19474 MEMB     158      CHL1     H7A      HGA2     0.900000E-01   1.00800           0
     19475 MEMB     158      CHL1     H7B      HGA2     0.900000E-01   1.00800           0
     19476 MEMB     158      CHL1     C8       CRL1    -0.900000E-01   12.0110           0
     19477 MEMB     158      CHL1     H8       HGA1     0.900000E-01   1.00800           0
     19478 MEMB     158      CHL1     C14      CRL1    -0.900000E-01   12.0110           0
     19479 MEMB     158      CHL1     H14      HGA1     0.900000E-01   1.00800           0
     19480 MEMB     158      CHL1     C15      CRL2    -0.180000       12.0110           0
     19481 MEMB     158      CHL1     H15A     HGA2     0.900000E-01   1.00800           0
     19482 MEMB     158      CHL1     H15B     HGA2     0.900000E-01   1.00800           0
     19483 MEMB     158      CHL1     C16      CRL2    -0.180000       12.0110           0
     19484 MEMB     158      CHL1     H16A     HGA2     0.900000E-01   1.00800           0
     19485 MEMB     158      CHL1     H16B     HGA2     0.900000E-01   1.00800           0
     19486 MEMB     158      CHL1     C17      CRL1    -0.900000E-01   12.0110           0
     19487 MEMB     158      CHL1     H17      HGA1     0.900000E-01   1.00800           0
     19488 MEMB     158      CHL1     C13      CRL1      0.00000       12.0110           0
     19489 MEMB     158      CHL1     C18      CTL3    -0.270000       12.0110           0
     19490 MEMB     158      CHL1     H18A     HAL3     0.900000E-01   1.00800           0
     19491 MEMB     158      CHL1     H18B     HAL3     0.900000E-01   1.00800           0
     19492 MEMB     158      CHL1     H18C     HAL3     0.900000E-01   1.00800           0
     19493 MEMB     158      CHL1     C12      CRL2    -0.180000       12.0110           0
     19494 MEMB     158      CHL1     H12A     HGA2     0.900000E-01   1.00800           0
     19495 MEMB     158      CHL1     H12B     HGA2     0.900000E-01   1.00800           0
     19496 MEMB     158      CHL1     C11      CRL2    -0.180000       12.0110           0
     19497 MEMB     158      CHL1     H11A     HGA2     0.900000E-01   1.00800           0
     19498 MEMB     158      CHL1     H11B     HGA2     0.900000E-01   1.00800           0
     19499 MEMB     158      CHL1     C9       CRL1    -0.900000E-01   12.0110           0
     19500 MEMB     158      CHL1     H9       HGA1     0.900000E-01   1.00800           0
     19501 MEMB     158      CHL1     C10      CRL1      0.00000       12.0110           0
     19502 MEMB     158      CHL1     C19      CTL3    -0.270000       12.0110           0
     19503 MEMB     158      CHL1     H19A     HAL3     0.900000E-01   1.00800           0
     19504 MEMB     158      CHL1     H19B     HAL3     0.900000E-01   1.00800           0
     19505 MEMB     158      CHL1     H19C     HAL3     0.900000E-01   1.00800           0
     19506 MEMB     158      CHL1     C1       CRL2    -0.180000       12.0110           0
     19507 MEMB     158      CHL1     H1A      HGA2     0.900000E-01   1.00800           0
     19508 MEMB     158      CHL1     H1B      HGA2     0.900000E-01   1.00800           0
     19509 MEMB     158      CHL1     C2       CRL2    -0.180000       12.0110           0
     19510 MEMB     158      CHL1     H2A      HGA2     0.900000E-01   1.00800           0
     19511 MEMB     158      CHL1     H2B      HGA2     0.900000E-01   1.00800           0
     19512 MEMB     158      CHL1     C20      CTL1    -0.900000E-01   12.0110           0
     19513 MEMB     158      CHL1     H20      HAL1     0.900000E-01   1.00800           0
     19514 MEMB     158      CHL1     C21      CTL3    -0.270000       12.0110           0
     19515 MEMB     158      CHL1     H21A     HAL3     0.900000E-01   1.00800           0
     19516 MEMB     158      CHL1     H21B     HAL3     0.900000E-01   1.00800           0
     19517 MEMB     158      CHL1     H21C     HAL3     0.900000E-01   1.00800           0
     19518 MEMB     158      CHL1     C22      CTL2    -0.180000       12.0110           0
     19519 MEMB     158      CHL1     H22A     HAL2     0.900000E-01   1.00800           0
     19520 MEMB     158      CHL1     H22B     HAL2     0.900000E-01   1.00800           0
     19521 MEMB     158      CHL1     C23      CTL2    -0.180000       12.0110           0
     19522 MEMB     158      CHL1     H23A     HAL2     0.900000E-01   1.00800           0
     19523 MEMB     158      CHL1     H23B     HAL2     0.900000E-01   1.00800           0
     19524 MEMB     158      CHL1     C24      CTL2    -0.180000       12.0110           0
     19525 MEMB     158      CHL1     H24A     HAL2     0.900000E-01   1.00800           0
     19526 MEMB     158      CHL1     H24B     HAL2     0.900000E-01   1.00800           0
     19527 MEMB     158      CHL1     C25      CTL1    -0.900000E-01   12.0110           0
     19528 MEMB     158      CHL1     H25      HAL1     0.900000E-01   1.00800           0
     19529 MEMB     158      CHL1     C26      CTL3    -0.270000       12.0110           0
     19530 MEMB     158      CHL1     H26A     HAL3     0.900000E-01   1.00800           0
     19531 MEMB     158      CHL1     H26B     HAL3     0.900000E-01   1.00800           0
     19532 MEMB     158      CHL1     H26C     HAL3     0.900000E-01   1.00800           0
     19533 MEMB     158      CHL1     C27      CTL3    -0.270000       12.0110           0
     19534 MEMB     158      CHL1     H27A     HAL3     0.900000E-01   1.00800           0
     19535 MEMB     158      CHL1     H27B     HAL3     0.900000E-01   1.00800           0
     19536 MEMB     158      CHL1     H27C     HAL3     0.900000E-01   1.00800           0
     19537 MEMB     159      23SM     N        NTL     -0.600000       14.0070           0
     19538 MEMB     159      23SM     C15      CTL5    -0.350000       12.0110           0
     19539 MEMB     159      23SM     H15A     HL       0.250000       1.00800           0
     19540 MEMB     159      23SM     H15B     HL       0.250000       1.00800           0
     19541 MEMB     159      23SM     H15C     HL       0.250000       1.00800           0
     19542 MEMB     159      23SM     C14      CTL5    -0.350000       12.0110           0
     19543 MEMB     159      23SM     H14A     HL       0.250000       1.00800           0
     19544 MEMB     159      23SM     H14B     HL       0.250000       1.00800           0
     19545 MEMB     159      23SM     H14C     HL       0.250000       1.00800           0
     19546 MEMB     159      23SM     C13      CTL5    -0.350000       12.0110           0
     19547 MEMB     159      23SM     H13A     HL       0.250000       1.00800           0
     19548 MEMB     159      23SM     H13B     HL       0.250000       1.00800           0
     19549 MEMB     159      23SM     H13C     HL       0.250000       1.00800           0
     19550 MEMB     159      23SM     C12      CTL2    -0.100000       12.0110           0
     19551 MEMB     159      23SM     H12A     HL       0.250000       1.00800           0
     19552 MEMB     159      23SM     H12B     HL       0.250000       1.00800           0
     19553 MEMB     159      23SM     C11      CTL2    -0.800000E-01   12.0110           0
     19554 MEMB     159      23SM     H11A     HAL2     0.900000E-01   1.00800           0
     19555 MEMB     159      23SM     H11B     HAL2     0.900000E-01   1.00800           0
     19556 MEMB     159      23SM     P        PL        1.50000       30.9740           0
     19557 MEMB     159      23SM     O13      O2L     -0.780000       15.9994           0
     19558 MEMB     159      23SM     O14      O2L     -0.780000       15.9994           0
     19559 MEMB     159      23SM     O11      OSLP    -0.570000       15.9994           0
     19560 MEMB     159      23SM     O12      OSLP    -0.570000       15.9994           0
     19561 MEMB     159      23SM     C1S      CTL2    -0.800000E-01   12.0110           0
     19562 MEMB     159      23SM     H1S      HAL2     0.900000E-01   1.00800           0
     19563 MEMB     159      23SM     H1T      HAL2     0.900000E-01   1.00800           0
     19564 MEMB     159      23SM     NF       NHL     -0.700000       14.0070           0
     19565 MEMB     159      23SM     HNF      H        0.350000       1.00800           0
     19566 MEMB     159      23SM     C2S      CTL1     0.300000       12.0110           0
     19567 MEMB     159      23SM     H2S      HAL1     0.500000E-01   1.00800           0
     19568 MEMB     159      23SM     C3S      CTO1     0.500000       12.0110           0
     19569 MEMB     159      23SM     H3S      HAL1    -0.110000       1.00800           0
     19570 MEMB     159      23SM     O3       OHL     -0.690000       15.9994           0
     19571 MEMB     159      23SM     HO3      HOL      0.300000       1.00800           0
     19572 MEMB     159      23SM     C4S      CEL3    -0.150000       12.0110           0
     19573 MEMB     159      23SM     H4S      HEL1     0.150000       1.00800           0
     19574 MEMB     159      23SM     C5S      CEL3    -0.150000       12.0110           0
     19575 MEMB     159      23SM     H5S      HEL1     0.150000       1.00800           0
     19576 MEMB     159      23SM     C6S      CTL2    -0.180000       12.0110           0
     19577 MEMB     159      23SM     H6S      HAL2     0.900000E-01   1.00800           0
     19578 MEMB     159      23SM     H6T      HAL2     0.900000E-01   1.00800           0
     19579 MEMB     159      23SM     C7S      CTL2    -0.180000       12.0110           0
     19580 MEMB     159      23SM     H7S      HAL2     0.900000E-01   1.00800           0
     19581 MEMB     159      23SM     H7T      HAL2     0.900000E-01   1.00800           0
     19582 MEMB     159      23SM     C8S      CTL2    -0.180000       12.0110           0
     19583 MEMB     159      23SM     H8S      HAL2     0.900000E-01   1.00800           0
     19584 MEMB     159      23SM     H8T      HAL2     0.900000E-01   1.00800           0
     19585 MEMB     159      23SM     C9S      CTL2    -0.180000       12.0110           0
     19586 MEMB     159      23SM     H9S      HAL2     0.900000E-01   1.00800           0
     19587 MEMB     159      23SM     H9T      HAL2     0.900000E-01   1.00800           0
     19588 MEMB     159      23SM     C10S     CTL2    -0.180000       12.0110           0
     19589 MEMB     159      23SM     H10S     HAL2     0.900000E-01   1.00800           0
     19590 MEMB     159      23SM     H10T     HAL2     0.900000E-01   1.00800           0
     19591 MEMB     159      23SM     C11S     CTL2    -0.180000       12.0110           0
     19592 MEMB     159      23SM     H11S     HAL2     0.900000E-01   1.00800           0
     19593 MEMB     159      23SM     H11T     HAL2     0.900000E-01   1.00800           0
     19594 MEMB     159      23SM     C12S     CTL2    -0.180000       12.0110           0
     19595 MEMB     159      23SM     H12S     HAL2     0.900000E-01   1.00800           0
     19596 MEMB     159      23SM     H12T     HAL2     0.900000E-01   1.00800           0
     19597 MEMB     159      23SM     C13S     CTL2    -0.180000       12.0110           0
     19598 MEMB     159      23SM     H13S     HAL2     0.900000E-01   1.00800           0
     19599 MEMB     159      23SM     H13T     HAL2     0.900000E-01   1.00800           0
     19600 MEMB     159      23SM     C14S     CTL2    -0.180000       12.0110           0
     19601 MEMB     159      23SM     H14S     HAL2     0.900000E-01   1.00800           0
     19602 MEMB     159      23SM     H14T     HAL2     0.900000E-01   1.00800           0
     19603 MEMB     159      23SM     C15S     CTL2    -0.180000       12.0110           0
     19604 MEMB     159      23SM     H15S     HAL2     0.900000E-01   1.00800           0
     19605 MEMB     159      23SM     H15T     HAL2     0.900000E-01   1.00800           0
     19606 MEMB     159      23SM     C16S     CTL2    -0.180000       12.0110           0
     19607 MEMB     159      23SM     H16S     HAL2     0.900000E-01   1.00800           0
     19608 MEMB     159      23SM     H16T     HAL2     0.900000E-01   1.00800           0
     19609 MEMB     159      23SM     C17S     CTL2    -0.180000       12.0110           0
     19610 MEMB     159      23SM     H17S     HAL2     0.900000E-01   1.00800           0
     19611 MEMB     159      23SM     H17T     HAL2     0.900000E-01   1.00800           0
     19612 MEMB     159      23SM     C18S     CTL3    -0.270000       12.0110           0
     19613 MEMB     159      23SM     H18S     HAL3     0.900000E-01   1.00800           0
     19614 MEMB     159      23SM     H18T     HAL3     0.900000E-01   1.00800           0
     19615 MEMB     159      23SM     H18U     HAL3     0.900000E-01   1.00800           0
     19616 MEMB     159      23SM     C1F      C        0.550000       12.0110           0
     19617 MEMB     159      23SM     OF       O       -0.600000       15.9994           0
     19618 MEMB     159      23SM     C2F      CTL2    -0.700000E-01   12.0110           0
     19619 MEMB     159      23SM     H2F      HAL2     0.600000E-01   1.00800           0
     19620 MEMB     159      23SM     H2G      HAL2     0.600000E-01   1.00800           0
     19621 MEMB     159      23SM     C3F      CTL2    -0.180000       12.0110           0
     19622 MEMB     159      23SM     H3F      HAL2     0.900000E-01   1.00800           0
     19623 MEMB     159      23SM     H3G      HAL2     0.900000E-01   1.00800           0
     19624 MEMB     159      23SM     C4F      CTL2    -0.180000       12.0110           0
     19625 MEMB     159      23SM     H4F      HAL2     0.900000E-01   1.00800           0
     19626 MEMB     159      23SM     H4G      HAL2     0.900000E-01   1.00800           0
     19627 MEMB     159      23SM     C5F      CTL2    -0.180000       12.0110           0
     19628 MEMB     159      23SM     H5F      HAL2     0.900000E-01   1.00800           0
     19629 MEMB     159      23SM     H5G      HAL2     0.900000E-01   1.00800           0
     19630 MEMB     159      23SM     C6F      CTL2    -0.180000       12.0110           0
     19631 MEMB     159      23SM     H6F      HAL2     0.900000E-01   1.00800           0
     19632 MEMB     159      23SM     H6G      HAL2     0.900000E-01   1.00800           0
     19633 MEMB     159      23SM     C7F      CTL2    -0.180000       12.0110           0
     19634 MEMB     159      23SM     H7F      HAL2     0.900000E-01   1.00800           0
     19635 MEMB     159      23SM     H7G      HAL2     0.900000E-01   1.00800           0
     19636 MEMB     159      23SM     C8F      CTL2    -0.180000       12.0110           0
     19637 MEMB     159      23SM     H8F      HAL2     0.900000E-01   1.00800           0
     19638 MEMB     159      23SM     H8G      HAL2     0.900000E-01   1.00800           0
     19639 MEMB     159      23SM     C9F      CTL2    -0.180000       12.0110           0
     19640 MEMB     159      23SM     H9F      HAL2     0.900000E-01   1.00800           0
     19641 MEMB     159      23SM     H9G      HAL2     0.900000E-01   1.00800           0
     19642 MEMB     159      23SM     C10F     CTL2    -0.180000       12.0110           0
     19643 MEMB     159      23SM     H10F     HAL2     0.900000E-01   1.00800           0
     19644 MEMB     159      23SM     H10G     HAL2     0.900000E-01   1.00800           0
     19645 MEMB     159      23SM     C11F     CTL2    -0.180000       12.0110           0
     19646 MEMB     159      23SM     H11F     HAL2     0.900000E-01   1.00800           0
     19647 MEMB     159      23SM     H11G     HAL2     0.900000E-01   1.00800           0
     19648 MEMB     159      23SM     C12F     CTL2    -0.180000       12.0110           0
     19649 MEMB     159      23SM     H12F     HAL2     0.900000E-01   1.00800           0
     19650 MEMB     159      23SM     H12G     HAL2     0.900000E-01   1.00800           0
     19651 MEMB     159      23SM     C13F     CTL2    -0.180000       12.0110           0
     19652 MEMB     159      23SM     H13F     HAL2     0.900000E-01   1.00800           0
     19653 MEMB     159      23SM     H13G     HAL2     0.900000E-01   1.00800           0
     19654 MEMB     159      23SM     C14F     CTL2    -0.180000       12.0110           0
     19655 MEMB     159      23SM     H14F     HAL2     0.900000E-01   1.00800           0
     19656 MEMB     159      23SM     H14G     HAL2     0.900000E-01   1.00800           0
     19657 MEMB     159      23SM     C15F     CTL2    -0.180000       12.0110           0
     19658 MEMB     159      23SM     H15F     HAL2     0.900000E-01   1.00800           0
     19659 MEMB     159      23SM     H15G     HAL2     0.900000E-01   1.00800           0
     19660 MEMB     159      23SM     C16F     CTL2    -0.180000       12.0110           0
     19661 MEMB     159      23SM     H16F     HAL2     0.900000E-01   1.00800           0
     19662 MEMB     159      23SM     H16G     HAL2     0.900000E-01   1.00800           0
     19663 MEMB     159      23SM     C17F     CTL2    -0.180000       12.0110           0
     19664 MEMB     159      23SM     H17F     HAL2     0.900000E-01   1.00800           0
     19665 MEMB     159      23SM     H17G     HAL2     0.900000E-01   1.00800           0
     19666 MEMB     159      23SM     C18F     CTL2    -0.180000       12.0110           0
     19667 MEMB     159      23SM     H18F     HAL2     0.900000E-01   1.00800           0
     19668 MEMB     159      23SM     H18G     HAL2     0.900000E-01   1.00800           0
     19669 MEMB     159      23SM     C19F     CTL2    -0.180000       12.0110           0
     19670 MEMB     159      23SM     H19F     HAL2     0.900000E-01   1.00800           0
     19671 MEMB     159      23SM     H19G     HAL2     0.900000E-01   1.00800           0
     19672 MEMB     159      23SM     C20F     CTL2    -0.180000       12.0110           0
     19673 MEMB     159      23SM     H20F     HAL2     0.900000E-01   1.00800           0
     19674 MEMB     159      23SM     H20G     HAL2     0.900000E-01   1.00800           0
     19675 MEMB     159      23SM     C21F     CTL2    -0.180000       12.0110           0
     19676 MEMB     159      23SM     H21F     HAL2     0.900000E-01   1.00800           0
     19677 MEMB     159      23SM     H21G     HAL2     0.900000E-01   1.00800           0
     19678 MEMB     159      23SM     C22F     CTL2    -0.180000       12.0110           0
     19679 MEMB     159      23SM     H22F     HAL2     0.900000E-01   1.00800           0
     19680 MEMB     159      23SM     H22G     HAL2     0.900000E-01   1.00800           0
     19681 MEMB     159      23SM     C23F     CTL3    -0.270000       12.0110           0
     19682 MEMB     159      23SM     H23F     HAL3     0.900000E-01   1.00800           0
     19683 MEMB     159      23SM     H23G     HAL3     0.900000E-01   1.00800           0
     19684 MEMB     159      23SM     H23H     HAL3     0.900000E-01   1.00800           0
     19685 MEMB     160      DOPC     N        NTL     -0.600000       14.0070           0
     19686 MEMB     160      DOPC     C12      CTL2    -0.100000       12.0110           0
     19687 MEMB     160      DOPC     H12A     HL       0.250000       1.00800           0
     19688 MEMB     160      DOPC     H12B     HL       0.250000       1.00800           0
     19689 MEMB     160      DOPC     C13      CTL5    -0.350000       12.0110           0
     19690 MEMB     160      DOPC     H13A     HL       0.250000       1.00800           0
     19691 MEMB     160      DOPC     H13B     HL       0.250000       1.00800           0
     19692 MEMB     160      DOPC     H13C     HL       0.250000       1.00800           0
     19693 MEMB     160      DOPC     C14      CTL5    -0.350000       12.0110           0
     19694 MEMB     160      DOPC     H14A     HL       0.250000       1.00800           0
     19695 MEMB     160      DOPC     H14B     HL       0.250000       1.00800           0
     19696 MEMB     160      DOPC     H14C     HL       0.250000       1.00800           0
     19697 MEMB     160      DOPC     C15      CTL5    -0.350000       12.0110           0
     19698 MEMB     160      DOPC     H15A     HL       0.250000       1.00800           0
     19699 MEMB     160      DOPC     H15B     HL       0.250000       1.00800           0
     19700 MEMB     160      DOPC     H15C     HL       0.250000       1.00800           0
     19701 MEMB     160      DOPC     C11      CTL2    -0.800000E-01   12.0110           0
     19702 MEMB     160      DOPC     H11A     HAL2     0.900000E-01   1.00800           0
     19703 MEMB     160      DOPC     H11B     HAL2     0.900000E-01   1.00800           0
     19704 MEMB     160      DOPC     P        PL        1.50000       30.9740           0
     19705 MEMB     160      DOPC     O13      O2L     -0.780000       15.9994           0
     19706 MEMB     160      DOPC     O14      O2L     -0.780000       15.9994           0
     19707 MEMB     160      DOPC     O12      OSLP    -0.570000       15.9994           0
     19708 MEMB     160      DOPC     O11      OSLP    -0.570000       15.9994           0
     19709 MEMB     160      DOPC     C1       CTL2    -0.800000E-01   12.0110           0
     19710 MEMB     160      DOPC     HA       HAL2     0.900000E-01   1.00800           0
     19711 MEMB     160      DOPC     HB       HAL2     0.900000E-01   1.00800           0
     19712 MEMB     160      DOPC     C2       CTL1     0.170000       12.0110           0
     19713 MEMB     160      DOPC     HS       HAL1     0.900000E-01   1.00800           0
     19714 MEMB     160      DOPC     O21      OSL     -0.490000       15.9994           0
     19715 MEMB     160      DOPC     C21      CL       0.900000       12.0110           0
     19716 MEMB     160      DOPC     O22      OBL     -0.630000       15.9994           0
     19717 MEMB     160      DOPC     C22      CTL2    -0.220000       12.0110           0
     19718 MEMB     160      DOPC     H2R      HAL2     0.900000E-01   1.00800           0
     19719 MEMB     160      DOPC     H2S      HAL2     0.900000E-01   1.00800           0
     19720 MEMB     160      DOPC     C3       CTL2     0.800000E-01   12.0110           0
     19721 MEMB     160      DOPC     HX       HAL2     0.900000E-01   1.00800           0
     19722 MEMB     160      DOPC     HY       HAL2     0.900000E-01   1.00800           0
     19723 MEMB     160      DOPC     O31      OSL     -0.490000       15.9994           0
     19724 MEMB     160      DOPC     C31      CL       0.900000       12.0110           0
     19725 MEMB     160      DOPC     O32      OBL     -0.630000       15.9994           0
     19726 MEMB     160      DOPC     C32      CTL2    -0.220000       12.0110           0
     19727 MEMB     160      DOPC     H2X      HAL2     0.900000E-01   1.00800           0
     19728 MEMB     160      DOPC     H2Y      HAL2     0.900000E-01   1.00800           0
     19729 MEMB     160      DOPC     C23      CTL2    -0.180000       12.0110           0
     19730 MEMB     160      DOPC     H3R      HAL2     0.900000E-01   1.00800           0
     19731 MEMB     160      DOPC     H3S      HAL2     0.900000E-01   1.00800           0
     19732 MEMB     160      DOPC     C24      CTL2    -0.180000       12.0110           0
     19733 MEMB     160      DOPC     H4R      HAL2     0.900000E-01   1.00800           0
     19734 MEMB     160      DOPC     H4S      HAL2     0.900000E-01   1.00800           0
     19735 MEMB     160      DOPC     C25      CTL2    -0.180000       12.0110           0
     19736 MEMB     160      DOPC     H5R      HAL2     0.900000E-01   1.00800           0
     19737 MEMB     160      DOPC     H5S      HAL2     0.900000E-01   1.00800           0
     19738 MEMB     160      DOPC     C26      CTL2    -0.180000       12.0110           0
     19739 MEMB     160      DOPC     H6R      HAL2     0.900000E-01   1.00800           0
     19740 MEMB     160      DOPC     H6S      HAL2     0.900000E-01   1.00800           0
     19741 MEMB     160      DOPC     C27      CTL2    -0.180000       12.0110           0
     19742 MEMB     160      DOPC     H7R      HAL2     0.900000E-01   1.00800           0
     19743 MEMB     160      DOPC     H7S      HAL2     0.900000E-01   1.00800           0
     19744 MEMB     160      DOPC     C28      CTL2    -0.180000       12.0110           0
     19745 MEMB     160      DOPC     H8R      HAL2     0.900000E-01   1.00800           0
     19746 MEMB     160      DOPC     H8S      HAL2     0.900000E-01   1.00800           0
     19747 MEMB     160      DOPC     C29      CEL1    -0.150000       12.0110           0
     19748 MEMB     160      DOPC     H9R      HEL1     0.150000       1.00800           0
     19749 MEMB     160      DOPC     C210     CEL1    -0.150000       12.0110           0
     19750 MEMB     160      DOPC     H10R     HEL1     0.150000       1.00800           0
     19751 MEMB     160      DOPC     C211     CTL2    -0.180000       12.0110           0
     19752 MEMB     160      DOPC     H11R     HAL2     0.900000E-01   1.00800           0
     19753 MEMB     160      DOPC     H11S     HAL2     0.900000E-01   1.00800           0
     19754 MEMB     160      DOPC     C212     CTL2    -0.180000       12.0110           0
     19755 MEMB     160      DOPC     H12R     HAL2     0.900000E-01   1.00800           0
     19756 MEMB     160      DOPC     H12S     HAL2     0.900000E-01   1.00800           0
     19757 MEMB     160      DOPC     C213     CTL2    -0.180000       12.0110           0
     19758 MEMB     160      DOPC     H13R     HAL2     0.900000E-01   1.00800           0
     19759 MEMB     160      DOPC     H13S     HAL2     0.900000E-01   1.00800           0
     19760 MEMB     160      DOPC     C214     CTL2    -0.180000       12.0110           0
     19761 MEMB     160      DOPC     H14R     HAL2     0.900000E-01   1.00800           0
     19762 MEMB     160      DOPC     H14S     HAL2     0.900000E-01   1.00800           0
     19763 MEMB     160      DOPC     C215     CTL2    -0.180000       12.0110           0
     19764 MEMB     160      DOPC     H15R     HAL2     0.900000E-01   1.00800           0
     19765 MEMB     160      DOPC     H15S     HAL2     0.900000E-01   1.00800           0
     19766 MEMB     160      DOPC     C216     CTL2    -0.180000       12.0110           0
     19767 MEMB     160      DOPC     H16R     HAL2     0.900000E-01   1.00800           0
     19768 MEMB     160      DOPC     H16S     HAL2     0.900000E-01   1.00800           0
     19769 MEMB     160      DOPC     C217     CTL2    -0.180000       12.0110           0
     19770 MEMB     160      DOPC     H17R     HAL2     0.900000E-01   1.00800           0
     19771 MEMB     160      DOPC     H17S     HAL2     0.900000E-01   1.00800           0
     19772 MEMB     160      DOPC     C218     CTL3    -0.270000       12.0110           0
     19773 MEMB     160      DOPC     H18R     HAL3     0.900000E-01   1.00800           0
     19774 MEMB     160      DOPC     H18S     HAL3     0.900000E-01   1.00800           0
     19775 MEMB     160      DOPC     H18T     HAL3     0.900000E-01   1.00800           0
     19776 MEMB     160      DOPC     C33      CTL2    -0.180000       12.0110           0
     19777 MEMB     160      DOPC     H3X      HAL2     0.900000E-01   1.00800           0
     19778 MEMB     160      DOPC     H3Y      HAL2     0.900000E-01   1.00800           0
     19779 MEMB     160      DOPC     C34      CTL2    -0.180000       12.0110           0
     19780 MEMB     160      DOPC     H4X      HAL2     0.900000E-01   1.00800           0
     19781 MEMB     160      DOPC     H4Y      HAL2     0.900000E-01   1.00800           0
     19782 MEMB     160      DOPC     C35      CTL2    -0.180000       12.0110           0
     19783 MEMB     160      DOPC     H5X      HAL2     0.900000E-01   1.00800           0
     19784 MEMB     160      DOPC     H5Y      HAL2     0.900000E-01   1.00800           0
     19785 MEMB     160      DOPC     C36      CTL2    -0.180000       12.0110           0
     19786 MEMB     160      DOPC     H6X      HAL2     0.900000E-01   1.00800           0
     19787 MEMB     160      DOPC     H6Y      HAL2     0.900000E-01   1.00800           0
     19788 MEMB     160      DOPC     C37      CTL2    -0.180000       12.0110           0
     19789 MEMB     160      DOPC     H7X      HAL2     0.900000E-01   1.00800           0
     19790 MEMB     160      DOPC     H7Y      HAL2     0.900000E-01   1.00800           0
     19791 MEMB     160      DOPC     C38      CTL2    -0.180000       12.0110           0
     19792 MEMB     160      DOPC     H8X      HAL2     0.900000E-01   1.00800           0
     19793 MEMB     160      DOPC     H8Y      HAL2     0.900000E-01   1.00800           0
     19794 MEMB     160      DOPC     C39      CEL1    -0.150000       12.0110           0
     19795 MEMB     160      DOPC     H9X      HEL1     0.150000       1.00800           0
     19796 MEMB     160      DOPC     C310     CEL1    -0.150000       12.0110           0
     19797 MEMB     160      DOPC     H10X     HEL1     0.150000       1.00800           0
     19798 MEMB     160      DOPC     C311     CTL2    -0.180000       12.0110           0
     19799 MEMB     160      DOPC     H11X     HAL2     0.900000E-01   1.00800           0
     19800 MEMB     160      DOPC     H11Y     HAL2     0.900000E-01   1.00800           0
     19801 MEMB     160      DOPC     C312     CTL2    -0.180000       12.0110           0
     19802 MEMB     160      DOPC     H12X     HAL2     0.900000E-01   1.00800           0
     19803 MEMB     160      DOPC     H12Y     HAL2     0.900000E-01   1.00800           0
     19804 MEMB     160      DOPC     C313     CTL2    -0.180000       12.0110           0
     19805 MEMB     160      DOPC     H13X     HAL2     0.900000E-01   1.00800           0
     19806 MEMB     160      DOPC     H13Y     HAL2     0.900000E-01   1.00800           0
     19807 MEMB     160      DOPC     C314     CTL2    -0.180000       12.0110           0
     19808 MEMB     160      DOPC     H14X     HAL2     0.900000E-01   1.00800           0
     19809 MEMB     160      DOPC     H14Y     HAL2     0.900000E-01   1.00800           0
     19810 MEMB     160      DOPC     C315     CTL2    -0.180000       12.0110           0
     19811 MEMB     160      DOPC     H15X     HAL2     0.900000E-01   1.00800           0
     19812 MEMB     160      DOPC     H15Y     HAL2     0.900000E-01   1.00800           0
     19813 MEMB     160      DOPC     C316     CTL2    -0.180000       12.0110           0
     19814 MEMB     160      DOPC     H16X     HAL2     0.900000E-01   1.00800           0
     19815 MEMB     160      DOPC     H16Y     HAL2     0.900000E-01   1.00800           0
     19816 MEMB     160      DOPC     C317     CTL2    -0.180000       12.0110           0
     19817 MEMB     160      DOPC     H17X     HAL2     0.900000E-01   1.00800           0
     19818 MEMB     160      DOPC     H17Y     HAL2     0.900000E-01   1.00800           0
     19819 MEMB     160      DOPC     C318     CTL3    -0.270000       12.0110           0
     19820 MEMB     160      DOPC     H18X     HAL3     0.900000E-01   1.00800           0
     19821 MEMB     160      DOPC     H18Y     HAL3     0.900000E-01   1.00800           0
     19822 MEMB     160      DOPC     H18Z     HAL3     0.900000E-01   1.00800           0
     19823 MEMB     161      DOPC     N        NTL     -0.600000       14.0070           0
     19824 MEMB     161      DOPC     C12      CTL2    -0.100000       12.0110           0
     19825 MEMB     161      DOPC     H12A     HL       0.250000       1.00800           0
     19826 MEMB     161      DOPC     H12B     HL       0.250000       1.00800           0
     19827 MEMB     161      DOPC     C13      CTL5    -0.350000       12.0110           0
     19828 MEMB     161      DOPC     H13A     HL       0.250000       1.00800           0
     19829 MEMB     161      DOPC     H13B     HL       0.250000       1.00800           0
     19830 MEMB     161      DOPC     H13C     HL       0.250000       1.00800           0
     19831 MEMB     161      DOPC     C14      CTL5    -0.350000       12.0110           0
     19832 MEMB     161      DOPC     H14A     HL       0.250000       1.00800           0
     19833 MEMB     161      DOPC     H14B     HL       0.250000       1.00800           0
     19834 MEMB     161      DOPC     H14C     HL       0.250000       1.00800           0
     19835 MEMB     161      DOPC     C15      CTL5    -0.350000       12.0110           0
     19836 MEMB     161      DOPC     H15A     HL       0.250000       1.00800           0
     19837 MEMB     161      DOPC     H15B     HL       0.250000       1.00800           0
     19838 MEMB     161      DOPC     H15C     HL       0.250000       1.00800           0
     19839 MEMB     161      DOPC     C11      CTL2    -0.800000E-01   12.0110           0
     19840 MEMB     161      DOPC     H11A     HAL2     0.900000E-01   1.00800           0
     19841 MEMB     161      DOPC     H11B     HAL2     0.900000E-01   1.00800           0
     19842 MEMB     161      DOPC     P        PL        1.50000       30.9740           0
     19843 MEMB     161      DOPC     O13      O2L     -0.780000       15.9994           0
     19844 MEMB     161      DOPC     O14      O2L     -0.780000       15.9994           0
     19845 MEMB     161      DOPC     O12      OSLP    -0.570000       15.9994           0
     19846 MEMB     161      DOPC     O11      OSLP    -0.570000       15.9994           0
     19847 MEMB     161      DOPC     C1       CTL2    -0.800000E-01   12.0110           0
     19848 MEMB     161      DOPC     HA       HAL2     0.900000E-01   1.00800           0
     19849 MEMB     161      DOPC     HB       HAL2     0.900000E-01   1.00800           0
     19850 MEMB     161      DOPC     C2       CTL1     0.170000       12.0110           0
     19851 MEMB     161      DOPC     HS       HAL1     0.900000E-01   1.00800           0
     19852 MEMB     161      DOPC     O21      OSL     -0.490000       15.9994           0
     19853 MEMB     161      DOPC     C21      CL       0.900000       12.0110           0
     19854 MEMB     161      DOPC     O22      OBL     -0.630000       15.9994           0
     19855 MEMB     161      DOPC     C22      CTL2    -0.220000       12.0110           0
     19856 MEMB     161      DOPC     H2R      HAL2     0.900000E-01   1.00800           0
     19857 MEMB     161      DOPC     H2S      HAL2     0.900000E-01   1.00800           0
     19858 MEMB     161      DOPC     C3       CTL2     0.800000E-01   12.0110           0
     19859 MEMB     161      DOPC     HX       HAL2     0.900000E-01   1.00800           0
     19860 MEMB     161      DOPC     HY       HAL2     0.900000E-01   1.00800           0
     19861 MEMB     161      DOPC     O31      OSL     -0.490000       15.9994           0
     19862 MEMB     161      DOPC     C31      CL       0.900000       12.0110           0
     19863 MEMB     161      DOPC     O32      OBL     -0.630000       15.9994           0
     19864 MEMB     161      DOPC     C32      CTL2    -0.220000       12.0110           0
     19865 MEMB     161      DOPC     H2X      HAL2     0.900000E-01   1.00800           0
     19866 MEMB     161      DOPC     H2Y      HAL2     0.900000E-01   1.00800           0
     19867 MEMB     161      DOPC     C23      CTL2    -0.180000       12.0110           0
     19868 MEMB     161      DOPC     H3R      HAL2     0.900000E-01   1.00800           0
     19869 MEMB     161      DOPC     H3S      HAL2     0.900000E-01   1.00800           0
     19870 MEMB     161      DOPC     C24      CTL2    -0.180000       12.0110           0
     19871 MEMB     161      DOPC     H4R      HAL2     0.900000E-01   1.00800           0
     19872 MEMB     161      DOPC     H4S      HAL2     0.900000E-01   1.00800           0
     19873 MEMB     161      DOPC     C25      CTL2    -0.180000       12.0110           0
     19874 MEMB     161      DOPC     H5R      HAL2     0.900000E-01   1.00800           0
     19875 MEMB     161      DOPC     H5S      HAL2     0.900000E-01   1.00800           0
     19876 MEMB     161      DOPC     C26      CTL2    -0.180000       12.0110           0
     19877 MEMB     161      DOPC     H6R      HAL2     0.900000E-01   1.00800           0
     19878 MEMB     161      DOPC     H6S      HAL2     0.900000E-01   1.00800           0
     19879 MEMB     161      DOPC     C27      CTL2    -0.180000       12.0110           0
     19880 MEMB     161      DOPC     H7R      HAL2     0.900000E-01   1.00800           0
     19881 MEMB     161      DOPC     H7S      HAL2     0.900000E-01   1.00800           0
     19882 MEMB     161      DOPC     C28      CTL2    -0.180000       12.0110           0
     19883 MEMB     161      DOPC     H8R      HAL2     0.900000E-01   1.00800           0
     19884 MEMB     161      DOPC     H8S      HAL2     0.900000E-01   1.00800           0
     19885 MEMB     161      DOPC     C29      CEL1    -0.150000       12.0110           0
     19886 MEMB     161      DOPC     H9R      HEL1     0.150000       1.00800           0
     19887 MEMB     161      DOPC     C210     CEL1    -0.150000       12.0110           0
     19888 MEMB     161      DOPC     H10R     HEL1     0.150000       1.00800           0
     19889 MEMB     161      DOPC     C211     CTL2    -0.180000       12.0110           0
     19890 MEMB     161      DOPC     H11R     HAL2     0.900000E-01   1.00800           0
     19891 MEMB     161      DOPC     H11S     HAL2     0.900000E-01   1.00800           0
     19892 MEMB     161      DOPC     C212     CTL2    -0.180000       12.0110           0
     19893 MEMB     161      DOPC     H12R     HAL2     0.900000E-01   1.00800           0
     19894 MEMB     161      DOPC     H12S     HAL2     0.900000E-01   1.00800           0
     19895 MEMB     161      DOPC     C213     CTL2    -0.180000       12.0110           0
     19896 MEMB     161      DOPC     H13R     HAL2     0.900000E-01   1.00800           0
     19897 MEMB     161      DOPC     H13S     HAL2     0.900000E-01   1.00800           0
     19898 MEMB     161      DOPC     C214     CTL2    -0.180000       12.0110           0
     19899 MEMB     161      DOPC     H14R     HAL2     0.900000E-01   1.00800           0
     19900 MEMB     161      DOPC     H14S     HAL2     0.900000E-01   1.00800           0
     19901 MEMB     161      DOPC     C215     CTL2    -0.180000       12.0110           0
     19902 MEMB     161      DOPC     H15R     HAL2     0.900000E-01   1.00800           0
     19903 MEMB     161      DOPC     H15S     HAL2     0.900000E-01   1.00800           0
     19904 MEMB     161      DOPC     C216     CTL2    -0.180000       12.0110           0
     19905 MEMB     161      DOPC     H16R     HAL2     0.900000E-01   1.00800           0
     19906 MEMB     161      DOPC     H16S     HAL2     0.900000E-01   1.00800           0
     19907 MEMB     161      DOPC     C217     CTL2    -0.180000       12.0110           0
     19908 MEMB     161      DOPC     H17R     HAL2     0.900000E-01   1.00800           0
     19909 MEMB     161      DOPC     H17S     HAL2     0.900000E-01   1.00800           0
     19910 MEMB     161      DOPC     C218     CTL3    -0.270000       12.0110           0
     19911 MEMB     161      DOPC     H18R     HAL3     0.900000E-01   1.00800           0
     19912 MEMB     161      DOPC     H18S     HAL3     0.900000E-01   1.00800           0
     19913 MEMB     161      DOPC     H18T     HAL3     0.900000E-01   1.00800           0
     19914 MEMB     161      DOPC     C33      CTL2    -0.180000       12.0110           0
     19915 MEMB     161      DOPC     H3X      HAL2     0.900000E-01   1.00800           0
     19916 MEMB     161      DOPC     H3Y      HAL2     0.900000E-01   1.00800           0
     19917 MEMB     161      DOPC     C34      CTL2    -0.180000       12.0110           0
     19918 MEMB     161      DOPC     H4X      HAL2     0.900000E-01   1.00800           0
     19919 MEMB     161      DOPC     H4Y      HAL2     0.900000E-01   1.00800           0
     19920 MEMB     161      DOPC     C35      CTL2    -0.180000       12.0110           0
     19921 MEMB     161      DOPC     H5X      HAL2     0.900000E-01   1.00800           0
     19922 MEMB     161      DOPC     H5Y      HAL2     0.900000E-01   1.00800           0
     19923 MEMB     161      DOPC     C36      CTL2    -0.180000       12.0110           0
     19924 MEMB     161      DOPC     H6X      HAL2     0.900000E-01   1.00800           0
     19925 MEMB     161      DOPC     H6Y      HAL2     0.900000E-01   1.00800           0
     19926 MEMB     161      DOPC     C37      CTL2    -0.180000       12.0110           0
     19927 MEMB     161      DOPC     H7X      HAL2     0.900000E-01   1.00800           0
     19928 MEMB     161      DOPC     H7Y      HAL2     0.900000E-01   1.00800           0
     19929 MEMB     161      DOPC     C38      CTL2    -0.180000       12.0110           0
     19930 MEMB     161      DOPC     H8X      HAL2     0.900000E-01   1.00800           0
     19931 MEMB     161      DOPC     H8Y      HAL2     0.900000E-01   1.00800           0
     19932 MEMB     161      DOPC     C39      CEL1    -0.150000       12.0110           0
     19933 MEMB     161      DOPC     H9X      HEL1     0.150000       1.00800           0
     19934 MEMB     161      DOPC     C310     CEL1    -0.150000       12.0110           0
     19935 MEMB     161      DOPC     H10X     HEL1     0.150000       1.00800           0
     19936 MEMB     161      DOPC     C311     CTL2    -0.180000       12.0110           0
     19937 MEMB     161      DOPC     H11X     HAL2     0.900000E-01   1.00800           0
     19938 MEMB     161      DOPC     H11Y     HAL2     0.900000E-01   1.00800           0
     19939 MEMB     161      DOPC     C312     CTL2    -0.180000       12.0110           0
     19940 MEMB     161      DOPC     H12X     HAL2     0.900000E-01   1.00800           0
     19941 MEMB     161      DOPC     H12Y     HAL2     0.900000E-01   1.00800           0
     19942 MEMB     161      DOPC     C313     CTL2    -0.180000       12.0110           0
     19943 MEMB     161      DOPC     H13X     HAL2     0.900000E-01   1.00800           0
     19944 MEMB     161      DOPC     H13Y     HAL2     0.900000E-01   1.00800           0
     19945 MEMB     161      DOPC     C314     CTL2    -0.180000       12.0110           0
     19946 MEMB     161      DOPC     H14X     HAL2     0.900000E-01   1.00800           0
     19947 MEMB     161      DOPC     H14Y     HAL2     0.900000E-01   1.00800           0
     19948 MEMB     161      DOPC     C315     CTL2    -0.180000       12.0110           0
     19949 MEMB     161      DOPC     H15X     HAL2     0.900000E-01   1.00800           0
     19950 MEMB     161      DOPC     H15Y     HAL2     0.900000E-01   1.00800           0
     19951 MEMB     161      DOPC     C316     CTL2    -0.180000       12.0110           0
     19952 MEMB     161      DOPC     H16X     HAL2     0.900000E-01   1.00800           0
     19953 MEMB     161      DOPC     H16Y     HAL2     0.900000E-01   1.00800           0
     19954 MEMB     161      DOPC     C317     CTL2    -0.180000       12.0110           0
     19955 MEMB     161      DOPC     H17X     HAL2     0.900000E-01   1.00800           0
     19956 MEMB     161      DOPC     H17Y     HAL2     0.900000E-01   1.00800           0
     19957 MEMB     161      DOPC     C318     CTL3    -0.270000       12.0110           0
     19958 MEMB     161      DOPC     H18X     HAL3     0.900000E-01   1.00800           0
     19959 MEMB     161      DOPC     H18Y     HAL3     0.900000E-01   1.00800           0
     19960 MEMB     161      DOPC     H18Z     HAL3     0.900000E-01   1.00800           0
     19961 MEMB     162      DOPC     N        NTL     -0.600000       14.0070           0
     19962 MEMB     162      DOPC     C12      CTL2    -0.100000       12.0110           0
     19963 MEMB     162      DOPC     H12A     HL       0.250000       1.00800           0
     19964 MEMB     162      DOPC     H12B     HL       0.250000       1.00800           0
     19965 MEMB     162      DOPC     C13      CTL5    -0.350000       12.0110           0
     19966 MEMB     162      DOPC     H13A     HL       0.250000       1.00800           0
     19967 MEMB     162      DOPC     H13B     HL       0.250000       1.00800           0
     19968 MEMB     162      DOPC     H13C     HL       0.250000       1.00800           0
     19969 MEMB     162      DOPC     C14      CTL5    -0.350000       12.0110           0
     19970 MEMB     162      DOPC     H14A     HL       0.250000       1.00800           0
     19971 MEMB     162      DOPC     H14B     HL       0.250000       1.00800           0
     19972 MEMB     162      DOPC     H14C     HL       0.250000       1.00800           0
     19973 MEMB     162      DOPC     C15      CTL5    -0.350000       12.0110           0
     19974 MEMB     162      DOPC     H15A     HL       0.250000       1.00800           0
     19975 MEMB     162      DOPC     H15B     HL       0.250000       1.00800           0
     19976 MEMB     162      DOPC     H15C     HL       0.250000       1.00800           0
     19977 MEMB     162      DOPC     C11      CTL2    -0.800000E-01   12.0110           0
     19978 MEMB     162      DOPC     H11A     HAL2     0.900000E-01   1.00800           0
     19979 MEMB     162      DOPC     H11B     HAL2     0.900000E-01   1.00800           0
     19980 MEMB     162      DOPC     P        PL        1.50000       30.9740           0
     19981 MEMB     162      DOPC     O13      O2L     -0.780000       15.9994           0
     19982 MEMB     162      DOPC     O14      O2L     -0.780000       15.9994           0
     19983 MEMB     162      DOPC     O12      OSLP    -0.570000       15.9994           0
     19984 MEMB     162      DOPC     O11      OSLP    -0.570000       15.9994           0
     19985 MEMB     162      DOPC     C1       CTL2    -0.800000E-01   12.0110           0
     19986 MEMB     162      DOPC     HA       HAL2     0.900000E-01   1.00800           0
     19987 MEMB     162      DOPC     HB       HAL2     0.900000E-01   1.00800           0
     19988 MEMB     162      DOPC     C2       CTL1     0.170000       12.0110           0
     19989 MEMB     162      DOPC     HS       HAL1     0.900000E-01   1.00800           0
     19990 MEMB     162      DOPC     O21      OSL     -0.490000       15.9994           0
     19991 MEMB     162      DOPC     C21      CL       0.900000       12.0110           0
     19992 MEMB     162      DOPC     O22      OBL     -0.630000       15.9994           0
     19993 MEMB     162      DOPC     C22      CTL2    -0.220000       12.0110           0
     19994 MEMB     162      DOPC     H2R      HAL2     0.900000E-01   1.00800           0
     19995 MEMB     162      DOPC     H2S      HAL2     0.900000E-01   1.00800           0
     19996 MEMB     162      DOPC     C3       CTL2     0.800000E-01   12.0110           0
     19997 MEMB     162      DOPC     HX       HAL2     0.900000E-01   1.00800           0
     19998 MEMB     162      DOPC     HY       HAL2     0.900000E-01   1.00800           0
     19999 MEMB     162      DOPC     O31      OSL     -0.490000       15.9994           0
     20000 MEMB     162      DOPC     C31      CL       0.900000       12.0110           0
     20001 MEMB     162      DOPC     O32      OBL     -0.630000       15.9994           0
     20002 MEMB     162      DOPC     C32      CTL2    -0.220000       12.0110           0
     20003 MEMB     162      DOPC     H2X      HAL2     0.900000E-01   1.00800           0
     20004 MEMB     162      DOPC     H2Y      HAL2     0.900000E-01   1.00800           0
     20005 MEMB     162      DOPC     C23      CTL2    -0.180000       12.0110           0
     20006 MEMB     162      DOPC     H3R      HAL2     0.900000E-01   1.00800           0
     20007 MEMB     162      DOPC     H3S      HAL2     0.900000E-01   1.00800           0
     20008 MEMB     162      DOPC     C24      CTL2    -0.180000       12.0110           0
     20009 MEMB     162      DOPC     H4R      HAL2     0.900000E-01   1.00800           0
     20010 MEMB     162      DOPC     H4S      HAL2     0.900000E-01   1.00800           0
     20011 MEMB     162      DOPC     C25      CTL2    -0.180000       12.0110           0
     20012 MEMB     162      DOPC     H5R      HAL2     0.900000E-01   1.00800           0
     20013 MEMB     162      DOPC     H5S      HAL2     0.900000E-01   1.00800           0
     20014 MEMB     162      DOPC     C26      CTL2    -0.180000       12.0110           0
     20015 MEMB     162      DOPC     H6R      HAL2     0.900000E-01   1.00800           0
     20016 MEMB     162      DOPC     H6S      HAL2     0.900000E-01   1.00800           0
     20017 MEMB     162      DOPC     C27      CTL2    -0.180000       12.0110           0
     20018 MEMB     162      DOPC     H7R      HAL2     0.900000E-01   1.00800           0
     20019 MEMB     162      DOPC     H7S      HAL2     0.900000E-01   1.00800           0
     20020 MEMB     162      DOPC     C28      CTL2    -0.180000       12.0110           0
     20021 MEMB     162      DOPC     H8R      HAL2     0.900000E-01   1.00800           0
     20022 MEMB     162      DOPC     H8S      HAL2     0.900000E-01   1.00800           0
     20023 MEMB     162      DOPC     C29      CEL1    -0.150000       12.0110           0
     20024 MEMB     162      DOPC     H9R      HEL1     0.150000       1.00800           0
     20025 MEMB     162      DOPC     C210     CEL1    -0.150000       12.0110           0
     20026 MEMB     162      DOPC     H10R     HEL1     0.150000       1.00800           0
     20027 MEMB     162      DOPC     C211     CTL2    -0.180000       12.0110           0
     20028 MEMB     162      DOPC     H11R     HAL2     0.900000E-01   1.00800           0
     20029 MEMB     162      DOPC     H11S     HAL2     0.900000E-01   1.00800           0
     20030 MEMB     162      DOPC     C212     CTL2    -0.180000       12.0110           0
     20031 MEMB     162      DOPC     H12R     HAL2     0.900000E-01   1.00800           0
     20032 MEMB     162      DOPC     H12S     HAL2     0.900000E-01   1.00800           0
     20033 MEMB     162      DOPC     C213     CTL2    -0.180000       12.0110           0
     20034 MEMB     162      DOPC     H13R     HAL2     0.900000E-01   1.00800           0
     20035 MEMB     162      DOPC     H13S     HAL2     0.900000E-01   1.00800           0
     20036 MEMB     162      DOPC     C214     CTL2    -0.180000       12.0110           0
     20037 MEMB     162      DOPC     H14R     HAL2     0.900000E-01   1.00800           0
     20038 MEMB     162      DOPC     H14S     HAL2     0.900000E-01   1.00800           0
     20039 MEMB     162      DOPC     C215     CTL2    -0.180000       12.0110           0
     20040 MEMB     162      DOPC     H15R     HAL2     0.900000E-01   1.00800           0
     20041 MEMB     162      DOPC     H15S     HAL2     0.900000E-01   1.00800           0
     20042 MEMB     162      DOPC     C216     CTL2    -0.180000       12.0110           0
     20043 MEMB     162      DOPC     H16R     HAL2     0.900000E-01   1.00800           0
     20044 MEMB     162      DOPC     H16S     HAL2     0.900000E-01   1.00800           0
     20045 MEMB     162      DOPC     C217     CTL2    -0.180000       12.0110           0
     20046 MEMB     162      DOPC     H17R     HAL2     0.900000E-01   1.00800           0
     20047 MEMB     162      DOPC     H17S     HAL2     0.900000E-01   1.00800           0
     20048 MEMB     162      DOPC     C218     CTL3    -0.270000       12.0110           0
     20049 MEMB     162      DOPC     H18R     HAL3     0.900000E-01   1.00800           0
     20050 MEMB     162      DOPC     H18S     HAL3     0.900000E-01   1.00800           0
     20051 MEMB     162      DOPC     H18T     HAL3     0.900000E-01   1.00800           0
     20052 MEMB     162      DOPC     C33      CTL2    -0.180000       12.0110           0
     20053 MEMB     162      DOPC     H3X      HAL2     0.900000E-01   1.00800           0
     20054 MEMB     162      DOPC     H3Y      HAL2     0.900000E-01   1.00800           0
     20055 MEMB     162      DOPC     C34      CTL2    -0.180000       12.0110           0
     20056 MEMB     162      DOPC     H4X      HAL2     0.900000E-01   1.00800           0
     20057 MEMB     162      DOPC     H4Y      HAL2     0.900000E-01   1.00800           0
     20058 MEMB     162      DOPC     C35      CTL2    -0.180000       12.0110           0
     20059 MEMB     162      DOPC     H5X      HAL2     0.900000E-01   1.00800           0
     20060 MEMB     162      DOPC     H5Y      HAL2     0.900000E-01   1.00800           0
     20061 MEMB     162      DOPC     C36      CTL2    -0.180000       12.0110           0
     20062 MEMB     162      DOPC     H6X      HAL2     0.900000E-01   1.00800           0
     20063 MEMB     162      DOPC     H6Y      HAL2     0.900000E-01   1.00800           0
     20064 MEMB     162      DOPC     C37      CTL2    -0.180000       12.0110           0
     20065 MEMB     162      DOPC     H7X      HAL2     0.900000E-01   1.00800           0
     20066 MEMB     162      DOPC     H7Y      HAL2     0.900000E-01   1.00800           0
     20067 MEMB     162      DOPC     C38      CTL2    -0.180000       12.0110           0
     20068 MEMB     162      DOPC     H8X      HAL2     0.900000E-01   1.00800           0
     20069 MEMB     162      DOPC     H8Y      HAL2     0.900000E-01   1.00800           0
     20070 MEMB     162      DOPC     C39      CEL1    -0.150000       12.0110           0
     20071 MEMB     162      DOPC     H9X      HEL1     0.150000       1.00800           0
     20072 MEMB     162      DOPC     C310     CEL1    -0.150000       12.0110           0
     20073 MEMB     162      DOPC     H10X     HEL1     0.150000       1.00800           0
     20074 MEMB     162      DOPC     C311     CTL2    -0.180000       12.0110           0
     20075 MEMB     162      DOPC     H11X     HAL2     0.900000E-01   1.00800           0
     20076 MEMB     162      DOPC     H11Y     HAL2     0.900000E-01   1.00800           0
     20077 MEMB     162      DOPC     C312     CTL2    -0.180000       12.0110           0
     20078 MEMB     162      DOPC     H12X     HAL2     0.900000E-01   1.00800           0
     20079 MEMB     162      DOPC     H12Y     HAL2     0.900000E-01   1.00800           0
     20080 MEMB     162      DOPC     C313     CTL2    -0.180000       12.0110           0
     20081 MEMB     162      DOPC     H13X     HAL2     0.900000E-01   1.00800           0
     20082 MEMB     162      DOPC     H13Y     HAL2     0.900000E-01   1.00800           0
     20083 MEMB     162      DOPC     C314     CTL2    -0.180000       12.0110           0
     20084 MEMB     162      DOPC     H14X     HAL2     0.900000E-01   1.00800           0
     20085 MEMB     162      DOPC     H14Y     HAL2     0.900000E-01   1.00800           0
     20086 MEMB     162      DOPC     C315     CTL2    -0.180000       12.0110           0
     20087 MEMB     162      DOPC     H15X     HAL2     0.900000E-01   1.00800           0
     20088 MEMB     162      DOPC     H15Y     HAL2     0.900000E-01   1.00800           0
     20089 MEMB     162      DOPC     C316     CTL2    -0.180000       12.0110           0
     20090 MEMB     162      DOPC     H16X     HAL2     0.900000E-01   1.00800           0
     20091 MEMB     162      DOPC     H16Y     HAL2     0.900000E-01   1.00800           0
     20092 MEMB     162      DOPC     C317     CTL2    -0.180000       12.0110           0
     20093 MEMB     162      DOPC     H17X     HAL2     0.900000E-01   1.00800           0
     20094 MEMB     162      DOPC     H17Y     HAL2     0.900000E-01   1.00800           0
     20095 MEMB     162      DOPC     C318     CTL3    -0.270000       12.0110           0
     20096 MEMB     162      DOPC     H18X     HAL3     0.900000E-01   1.00800           0
     20097 MEMB     162      DOPC     H18Y     HAL3     0.900000E-01   1.00800           0
     20098 MEMB     162      DOPC     H18Z     HAL3     0.900000E-01   1.00800           0
     20099 MEMB     163      DOPE     N        NH3L    -0.300000       14.0070           0
     20100 MEMB     163      DOPE     HN1      HCL      0.330000       1.00800           0
     20101 MEMB     163      DOPE     HN2      HCL      0.330000       1.00800           0
     20102 MEMB     163      DOPE     HN3      HCL      0.330000       1.00800           0
     20103 MEMB     163      DOPE     C12      CTL2     0.130000       12.0110           0
     20104 MEMB     163      DOPE     H12A     HAL2     0.900000E-01   1.00800           0
     20105 MEMB     163      DOPE     H12B     HAL2     0.900000E-01   1.00800           0
     20106 MEMB     163      DOPE     C11      CTL2    -0.800000E-01   12.0110           0
     20107 MEMB     163      DOPE     H11A     HAL2     0.900000E-01   1.00800           0
     20108 MEMB     163      DOPE     H11B     HAL2     0.900000E-01   1.00800           0
     20109 MEMB     163      DOPE     P        PL        1.50000       30.9740           0
     20110 MEMB     163      DOPE     O13      O2L     -0.780000       15.9994           0
     20111 MEMB     163      DOPE     O14      O2L     -0.780000       15.9994           0
     20112 MEMB     163      DOPE     O11      OSLP    -0.570000       15.9994           0
     20113 MEMB     163      DOPE     O12      OSLP    -0.570000       15.9994           0
     20114 MEMB     163      DOPE     C1       CTL2    -0.800000E-01   12.0110           0
     20115 MEMB     163      DOPE     HA       HAL2     0.900000E-01   1.00800           0
     20116 MEMB     163      DOPE     HB       HAL2     0.900000E-01   1.00800           0
     20117 MEMB     163      DOPE     C2       CTL1     0.170000       12.0110           0
     20118 MEMB     163      DOPE     HS       HAL1     0.900000E-01   1.00800           0
     20119 MEMB     163      DOPE     O21      OSL     -0.490000       15.9994           0
     20120 MEMB     163      DOPE     C21      CL       0.900000       12.0110           0
     20121 MEMB     163      DOPE     O22      OBL     -0.630000       15.9994           0
     20122 MEMB     163      DOPE     C22      CTL2    -0.220000       12.0110           0
     20123 MEMB     163      DOPE     H2R      HAL2     0.900000E-01   1.00800           0
     20124 MEMB     163      DOPE     H2S      HAL2     0.900000E-01   1.00800           0
     20125 MEMB     163      DOPE     C3       CTL2     0.800000E-01   12.0110           0
     20126 MEMB     163      DOPE     HX       HAL2     0.900000E-01   1.00800           0
     20127 MEMB     163      DOPE     HY       HAL2     0.900000E-01   1.00800           0
     20128 MEMB     163      DOPE     O31      OSL     -0.490000       15.9994           0
     20129 MEMB     163      DOPE     C31      CL       0.900000       12.0110           0
     20130 MEMB     163      DOPE     O32      OBL     -0.630000       15.9994           0
     20131 MEMB     163      DOPE     C32      CTL2    -0.220000       12.0110           0
     20132 MEMB     163      DOPE     H2X      HAL2     0.900000E-01   1.00800           0
     20133 MEMB     163      DOPE     H2Y      HAL2     0.900000E-01   1.00800           0
     20134 MEMB     163      DOPE     C23      CTL2    -0.180000       12.0110           0
     20135 MEMB     163      DOPE     H3R      HAL2     0.900000E-01   1.00800           0
     20136 MEMB     163      DOPE     H3S      HAL2     0.900000E-01   1.00800           0
     20137 MEMB     163      DOPE     C24      CTL2    -0.180000       12.0110           0
     20138 MEMB     163      DOPE     H4R      HAL2     0.900000E-01   1.00800           0
     20139 MEMB     163      DOPE     H4S      HAL2     0.900000E-01   1.00800           0
     20140 MEMB     163      DOPE     C25      CTL2    -0.180000       12.0110           0
     20141 MEMB     163      DOPE     H5R      HAL2     0.900000E-01   1.00800           0
     20142 MEMB     163      DOPE     H5S      HAL2     0.900000E-01   1.00800           0
     20143 MEMB     163      DOPE     C26      CTL2    -0.180000       12.0110           0
     20144 MEMB     163      DOPE     H6R      HAL2     0.900000E-01   1.00800           0
     20145 MEMB     163      DOPE     H6S      HAL2     0.900000E-01   1.00800           0
     20146 MEMB     163      DOPE     C27      CTL2    -0.180000       12.0110           0
     20147 MEMB     163      DOPE     H7R      HAL2     0.900000E-01   1.00800           0
     20148 MEMB     163      DOPE     H7S      HAL2     0.900000E-01   1.00800           0
     20149 MEMB     163      DOPE     C28      CTL2    -0.180000       12.0110           0
     20150 MEMB     163      DOPE     H8R      HAL2     0.900000E-01   1.00800           0
     20151 MEMB     163      DOPE     H8S      HAL2     0.900000E-01   1.00800           0
     20152 MEMB     163      DOPE     C29      CEL1    -0.150000       12.0110           0
     20153 MEMB     163      DOPE     H9R      HEL1     0.150000       1.00800           0
     20154 MEMB     163      DOPE     C210     CEL1    -0.150000       12.0110           0
     20155 MEMB     163      DOPE     H10R     HEL1     0.150000       1.00800           0
     20156 MEMB     163      DOPE     C211     CTL2    -0.180000       12.0110           0
     20157 MEMB     163      DOPE     H11R     HAL2     0.900000E-01   1.00800           0
     20158 MEMB     163      DOPE     H11S     HAL2     0.900000E-01   1.00800           0
     20159 MEMB     163      DOPE     C212     CTL2    -0.180000       12.0110           0
     20160 MEMB     163      DOPE     H12R     HAL2     0.900000E-01   1.00800           0
     20161 MEMB     163      DOPE     H12S     HAL2     0.900000E-01   1.00800           0
     20162 MEMB     163      DOPE     C213     CTL2    -0.180000       12.0110           0
     20163 MEMB     163      DOPE     H13R     HAL2     0.900000E-01   1.00800           0
     20164 MEMB     163      DOPE     H13S     HAL2     0.900000E-01   1.00800           0
     20165 MEMB     163      DOPE     C214     CTL2    -0.180000       12.0110           0
     20166 MEMB     163      DOPE     H14R     HAL2     0.900000E-01   1.00800           0
     20167 MEMB     163      DOPE     H14S     HAL2     0.900000E-01   1.00800           0
     20168 MEMB     163      DOPE     C215     CTL2    -0.180000       12.0110           0
     20169 MEMB     163      DOPE     H15R     HAL2     0.900000E-01   1.00800           0
     20170 MEMB     163      DOPE     H15S     HAL2     0.900000E-01   1.00800           0
     20171 MEMB     163      DOPE     C216     CTL2    -0.180000       12.0110           0
     20172 MEMB     163      DOPE     H16R     HAL2     0.900000E-01   1.00800           0
     20173 MEMB     163      DOPE     H16S     HAL2     0.900000E-01   1.00800           0
     20174 MEMB     163      DOPE     C217     CTL2    -0.180000       12.0110           0
     20175 MEMB     163      DOPE     H17R     HAL2     0.900000E-01   1.00800           0
     20176 MEMB     163      DOPE     H17S     HAL2     0.900000E-01   1.00800           0
     20177 MEMB     163      DOPE     C218     CTL3    -0.270000       12.0110           0
     20178 MEMB     163      DOPE     H18R     HAL3     0.900000E-01   1.00800           0
     20179 MEMB     163      DOPE     H18S     HAL3     0.900000E-01   1.00800           0
     20180 MEMB     163      DOPE     H18T     HAL3     0.900000E-01   1.00800           0
     20181 MEMB     163      DOPE     C33      CTL2    -0.180000       12.0110           0
     20182 MEMB     163      DOPE     H3X      HAL2     0.900000E-01   1.00800           0
     20183 MEMB     163      DOPE     H3Y      HAL2     0.900000E-01   1.00800           0
     20184 MEMB     163      DOPE     C34      CTL2    -0.180000       12.0110           0
     20185 MEMB     163      DOPE     H4X      HAL2     0.900000E-01   1.00800           0
     20186 MEMB     163      DOPE     H4Y      HAL2     0.900000E-01   1.00800           0
     20187 MEMB     163      DOPE     C35      CTL2    -0.180000       12.0110           0
     20188 MEMB     163      DOPE     H5X      HAL2     0.900000E-01   1.00800           0
     20189 MEMB     163      DOPE     H5Y      HAL2     0.900000E-01   1.00800           0
     20190 MEMB     163      DOPE     C36      CTL2    -0.180000       12.0110           0
     20191 MEMB     163      DOPE     H6X      HAL2     0.900000E-01   1.00800           0
     20192 MEMB     163      DOPE     H6Y      HAL2     0.900000E-01   1.00800           0
     20193 MEMB     163      DOPE     C37      CTL2    -0.180000       12.0110           0
     20194 MEMB     163      DOPE     H7X      HAL2     0.900000E-01   1.00800           0
     20195 MEMB     163      DOPE     H7Y      HAL2     0.900000E-01   1.00800           0
     20196 MEMB     163      DOPE     C38      CTL2    -0.180000       12.0110           0
     20197 MEMB     163      DOPE     H8X      HAL2     0.900000E-01   1.00800           0
     20198 MEMB     163      DOPE     H8Y      HAL2     0.900000E-01   1.00800           0
     20199 MEMB     163      DOPE     C39      CEL1    -0.150000       12.0110           0
     20200 MEMB     163      DOPE     H9X      HEL1     0.150000       1.00800           0
     20201 MEMB     163      DOPE     C310     CEL1    -0.150000       12.0110           0
     20202 MEMB     163      DOPE     H10X     HEL1     0.150000       1.00800           0
     20203 MEMB     163      DOPE     C311     CTL2    -0.180000       12.0110           0
     20204 MEMB     163      DOPE     H11X     HAL2     0.900000E-01   1.00800           0
     20205 MEMB     163      DOPE     H11Y     HAL2     0.900000E-01   1.00800           0
     20206 MEMB     163      DOPE     C312     CTL2    -0.180000       12.0110           0
     20207 MEMB     163      DOPE     H12X     HAL2     0.900000E-01   1.00800           0
     20208 MEMB     163      DOPE     H12Y     HAL2     0.900000E-01   1.00800           0
     20209 MEMB     163      DOPE     C313     CTL2    -0.180000       12.0110           0
     20210 MEMB     163      DOPE     H13X     HAL2     0.900000E-01   1.00800           0
     20211 MEMB     163      DOPE     H13Y     HAL2     0.900000E-01   1.00800           0
     20212 MEMB     163      DOPE     C314     CTL2    -0.180000       12.0110           0
     20213 MEMB     163      DOPE     H14X     HAL2     0.900000E-01   1.00800           0
     20214 MEMB     163      DOPE     H14Y     HAL2     0.900000E-01   1.00800           0
     20215 MEMB     163      DOPE     C315     CTL2    -0.180000       12.0110           0
     20216 MEMB     163      DOPE     H15X     HAL2     0.900000E-01   1.00800           0
     20217 MEMB     163      DOPE     H15Y     HAL2     0.900000E-01   1.00800           0
     20218 MEMB     163      DOPE     C316     CTL2    -0.180000       12.0110           0
     20219 MEMB     163      DOPE     H16X     HAL2     0.900000E-01   1.00800           0
     20220 MEMB     163      DOPE     H16Y     HAL2     0.900000E-01   1.00800           0
     20221 MEMB     163      DOPE     C317     CTL2    -0.180000       12.0110           0
     20222 MEMB     163      DOPE     H17X     HAL2     0.900000E-01   1.00800           0
     20223 MEMB     163      DOPE     H17Y     HAL2     0.900000E-01   1.00800           0
     20224 MEMB     163      DOPE     C318     CTL3    -0.270000       12.0110           0
     20225 MEMB     163      DOPE     H18X     HAL3     0.900000E-01   1.00800           0
     20226 MEMB     163      DOPE     H18Y     HAL3     0.900000E-01   1.00800           0
     20227 MEMB     163      DOPE     H18Z     HAL3     0.900000E-01   1.00800           0
     20228 MEMB     164      DOPE     N        NH3L    -0.300000       14.0070           0
     20229 MEMB     164      DOPE     HN1      HCL      0.330000       1.00800           0
     20230 MEMB     164      DOPE     HN2      HCL      0.330000       1.00800           0
     20231 MEMB     164      DOPE     HN3      HCL      0.330000       1.00800           0
     20232 MEMB     164      DOPE     C12      CTL2     0.130000       12.0110           0
     20233 MEMB     164      DOPE     H12A     HAL2     0.900000E-01   1.00800           0
     20234 MEMB     164      DOPE     H12B     HAL2     0.900000E-01   1.00800           0
     20235 MEMB     164      DOPE     C11      CTL2    -0.800000E-01   12.0110           0
     20236 MEMB     164      DOPE     H11A     HAL2     0.900000E-01   1.00800           0
     20237 MEMB     164      DOPE     H11B     HAL2     0.900000E-01   1.00800           0
     20238 MEMB     164      DOPE     P        PL        1.50000       30.9740           0
     20239 MEMB     164      DOPE     O13      O2L     -0.780000       15.9994           0
     20240 MEMB     164      DOPE     O14      O2L     -0.780000       15.9994           0
     20241 MEMB     164      DOPE     O11      OSLP    -0.570000       15.9994           0
     20242 MEMB     164      DOPE     O12      OSLP    -0.570000       15.9994           0
     20243 MEMB     164      DOPE     C1       CTL2    -0.800000E-01   12.0110           0
     20244 MEMB     164      DOPE     HA       HAL2     0.900000E-01   1.00800           0
     20245 MEMB     164      DOPE     HB       HAL2     0.900000E-01   1.00800           0
     20246 MEMB     164      DOPE     C2       CTL1     0.170000       12.0110           0
     20247 MEMB     164      DOPE     HS       HAL1     0.900000E-01   1.00800           0
     20248 MEMB     164      DOPE     O21      OSL     -0.490000       15.9994           0
     20249 MEMB     164      DOPE     C21      CL       0.900000       12.0110           0
     20250 MEMB     164      DOPE     O22      OBL     -0.630000       15.9994           0
     20251 MEMB     164      DOPE     C22      CTL2    -0.220000       12.0110           0
     20252 MEMB     164      DOPE     H2R      HAL2     0.900000E-01   1.00800           0
     20253 MEMB     164      DOPE     H2S      HAL2     0.900000E-01   1.00800           0
     20254 MEMB     164      DOPE     C3       CTL2     0.800000E-01   12.0110           0
     20255 MEMB     164      DOPE     HX       HAL2     0.900000E-01   1.00800           0
     20256 MEMB     164      DOPE     HY       HAL2     0.900000E-01   1.00800           0
     20257 MEMB     164      DOPE     O31      OSL     -0.490000       15.9994           0
     20258 MEMB     164      DOPE     C31      CL       0.900000       12.0110           0
     20259 MEMB     164      DOPE     O32      OBL     -0.630000       15.9994           0
     20260 MEMB     164      DOPE     C32      CTL2    -0.220000       12.0110           0
     20261 MEMB     164      DOPE     H2X      HAL2     0.900000E-01   1.00800           0
     20262 MEMB     164      DOPE     H2Y      HAL2     0.900000E-01   1.00800           0
     20263 MEMB     164      DOPE     C23      CTL2    -0.180000       12.0110           0
     20264 MEMB     164      DOPE     H3R      HAL2     0.900000E-01   1.00800           0
     20265 MEMB     164      DOPE     H3S      HAL2     0.900000E-01   1.00800           0
     20266 MEMB     164      DOPE     C24      CTL2    -0.180000       12.0110           0
     20267 MEMB     164      DOPE     H4R      HAL2     0.900000E-01   1.00800           0
     20268 MEMB     164      DOPE     H4S      HAL2     0.900000E-01   1.00800           0
     20269 MEMB     164      DOPE     C25      CTL2    -0.180000       12.0110           0
     20270 MEMB     164      DOPE     H5R      HAL2     0.900000E-01   1.00800           0
     20271 MEMB     164      DOPE     H5S      HAL2     0.900000E-01   1.00800           0
     20272 MEMB     164      DOPE     C26      CTL2    -0.180000       12.0110           0
     20273 MEMB     164      DOPE     H6R      HAL2     0.900000E-01   1.00800           0
     20274 MEMB     164      DOPE     H6S      HAL2     0.900000E-01   1.00800           0
     20275 MEMB     164      DOPE     C27      CTL2    -0.180000       12.0110           0
     20276 MEMB     164      DOPE     H7R      HAL2     0.900000E-01   1.00800           0
     20277 MEMB     164      DOPE     H7S      HAL2     0.900000E-01   1.00800           0
     20278 MEMB     164      DOPE     C28      CTL2    -0.180000       12.0110           0
     20279 MEMB     164      DOPE     H8R      HAL2     0.900000E-01   1.00800           0
     20280 MEMB     164      DOPE     H8S      HAL2     0.900000E-01   1.00800           0
     20281 MEMB     164      DOPE     C29      CEL1    -0.150000       12.0110           0
     20282 MEMB     164      DOPE     H9R      HEL1     0.150000       1.00800           0
     20283 MEMB     164      DOPE     C210     CEL1    -0.150000       12.0110           0
     20284 MEMB     164      DOPE     H10R     HEL1     0.150000       1.00800           0
     20285 MEMB     164      DOPE     C211     CTL2    -0.180000       12.0110           0
     20286 MEMB     164      DOPE     H11R     HAL2     0.900000E-01   1.00800           0
     20287 MEMB     164      DOPE     H11S     HAL2     0.900000E-01   1.00800           0
     20288 MEMB     164      DOPE     C212     CTL2    -0.180000       12.0110           0
     20289 MEMB     164      DOPE     H12R     HAL2     0.900000E-01   1.00800           0
     20290 MEMB     164      DOPE     H12S     HAL2     0.900000E-01   1.00800           0
     20291 MEMB     164      DOPE     C213     CTL2    -0.180000       12.0110           0
     20292 MEMB     164      DOPE     H13R     HAL2     0.900000E-01   1.00800           0
     20293 MEMB     164      DOPE     H13S     HAL2     0.900000E-01   1.00800           0
     20294 MEMB     164      DOPE     C214     CTL2    -0.180000       12.0110           0
     20295 MEMB     164      DOPE     H14R     HAL2     0.900000E-01   1.00800           0
     20296 MEMB     164      DOPE     H14S     HAL2     0.900000E-01   1.00800           0
     20297 MEMB     164      DOPE     C215     CTL2    -0.180000       12.0110           0
     20298 MEMB     164      DOPE     H15R     HAL2     0.900000E-01   1.00800           0
     20299 MEMB     164      DOPE     H15S     HAL2     0.900000E-01   1.00800           0
     20300 MEMB     164      DOPE     C216     CTL2    -0.180000       12.0110           0
     20301 MEMB     164      DOPE     H16R     HAL2     0.900000E-01   1.00800           0
     20302 MEMB     164      DOPE     H16S     HAL2     0.900000E-01   1.00800           0
     20303 MEMB     164      DOPE     C217     CTL2    -0.180000       12.0110           0
     20304 MEMB     164      DOPE     H17R     HAL2     0.900000E-01   1.00800           0
     20305 MEMB     164      DOPE     H17S     HAL2     0.900000E-01   1.00800           0
     20306 MEMB     164      DOPE     C218     CTL3    -0.270000       12.0110           0
     20307 MEMB     164      DOPE     H18R     HAL3     0.900000E-01   1.00800           0
     20308 MEMB     164      DOPE     H18S     HAL3     0.900000E-01   1.00800           0
     20309 MEMB     164      DOPE     H18T     HAL3     0.900000E-01   1.00800           0
     20310 MEMB     164      DOPE     C33      CTL2    -0.180000       12.0110           0
     20311 MEMB     164      DOPE     H3X      HAL2     0.900000E-01   1.00800           0
     20312 MEMB     164      DOPE     H3Y      HAL2     0.900000E-01   1.00800           0
     20313 MEMB     164      DOPE     C34      CTL2    -0.180000       12.0110           0
     20314 MEMB     164      DOPE     H4X      HAL2     0.900000E-01   1.00800           0
     20315 MEMB     164      DOPE     H4Y      HAL2     0.900000E-01   1.00800           0
     20316 MEMB     164      DOPE     C35      CTL2    -0.180000       12.0110           0
     20317 MEMB     164      DOPE     H5X      HAL2     0.900000E-01   1.00800           0
     20318 MEMB     164      DOPE     H5Y      HAL2     0.900000E-01   1.00800           0
     20319 MEMB     164      DOPE     C36      CTL2    -0.180000       12.0110           0
     20320 MEMB     164      DOPE     H6X      HAL2     0.900000E-01   1.00800           0
     20321 MEMB     164      DOPE     H6Y      HAL2     0.900000E-01   1.00800           0
     20322 MEMB     164      DOPE     C37      CTL2    -0.180000       12.0110           0
     20323 MEMB     164      DOPE     H7X      HAL2     0.900000E-01   1.00800           0
     20324 MEMB     164      DOPE     H7Y      HAL2     0.900000E-01   1.00800           0
     20325 MEMB     164      DOPE     C38      CTL2    -0.180000       12.0110           0
     20326 MEMB     164      DOPE     H8X      HAL2     0.900000E-01   1.00800           0
     20327 MEMB     164      DOPE     H8Y      HAL2     0.900000E-01   1.00800           0
     20328 MEMB     164      DOPE     C39      CEL1    -0.150000       12.0110           0
     20329 MEMB     164      DOPE     H9X      HEL1     0.150000       1.00800           0
     20330 MEMB     164      DOPE     C310     CEL1    -0.150000       12.0110           0
     20331 MEMB     164      DOPE     H10X     HEL1     0.150000       1.00800           0
     20332 MEMB     164      DOPE     C311     CTL2    -0.180000       12.0110           0
     20333 MEMB     164      DOPE     H11X     HAL2     0.900000E-01   1.00800           0
     20334 MEMB     164      DOPE     H11Y     HAL2     0.900000E-01   1.00800           0
     20335 MEMB     164      DOPE     C312     CTL2    -0.180000       12.0110           0
     20336 MEMB     164      DOPE     H12X     HAL2     0.900000E-01   1.00800           0
     20337 MEMB     164      DOPE     H12Y     HAL2     0.900000E-01   1.00800           0
     20338 MEMB     164      DOPE     C313     CTL2    -0.180000       12.0110           0
     20339 MEMB     164      DOPE     H13X     HAL2     0.900000E-01   1.00800           0
     20340 MEMB     164      DOPE     H13Y     HAL2     0.900000E-01   1.00800           0
     20341 MEMB     164      DOPE     C314     CTL2    -0.180000       12.0110           0
     20342 MEMB     164      DOPE     H14X     HAL2     0.900000E-01   1.00800           0
     20343 MEMB     164      DOPE     H14Y     HAL2     0.900000E-01   1.00800           0
     20344 MEMB     164      DOPE     C315     CTL2    -0.180000       12.0110           0
     20345 MEMB     164      DOPE     H15X     HAL2     0.900000E-01   1.00800           0
     20346 MEMB     164      DOPE     H15Y     HAL2     0.900000E-01   1.00800           0
     20347 MEMB     164      DOPE     C316     CTL2    -0.180000       12.0110           0
     20348 MEMB     164      DOPE     H16X     HAL2     0.900000E-01   1.00800           0
     20349 MEMB     164      DOPE     H16Y     HAL2     0.900000E-01   1.00800           0
     20350 MEMB     164      DOPE     C317     CTL2    -0.180000       12.0110           0
     20351 MEMB     164      DOPE     H17X     HAL2     0.900000E-01   1.00800           0
     20352 MEMB     164      DOPE     H17Y     HAL2     0.900000E-01   1.00800           0
     20353 MEMB     164      DOPE     C318     CTL3    -0.270000       12.0110           0
     20354 MEMB     164      DOPE     H18X     HAL3     0.900000E-01   1.00800           0
     20355 MEMB     164      DOPE     H18Y     HAL3     0.900000E-01   1.00800           0
     20356 MEMB     164      DOPE     H18Z     HAL3     0.900000E-01   1.00800           0
     20357 MEMB     165      DOPC     N        NTL     -0.600000       14.0070           0
     20358 MEMB     165      DOPC     C12      CTL2    -0.100000       12.0110           0
     20359 MEMB     165      DOPC     H12A     HL       0.250000       1.00800           0
     20360 MEMB     165      DOPC     H12B     HL       0.250000       1.00800           0
     20361 MEMB     165      DOPC     C13      CTL5    -0.350000       12.0110           0
     20362 MEMB     165      DOPC     H13A     HL       0.250000       1.00800           0
     20363 MEMB     165      DOPC     H13B     HL       0.250000       1.00800           0
     20364 MEMB     165      DOPC     H13C     HL       0.250000       1.00800           0
     20365 MEMB     165      DOPC     C14      CTL5    -0.350000       12.0110           0
     20366 MEMB     165      DOPC     H14A     HL       0.250000       1.00800           0
     20367 MEMB     165      DOPC     H14B     HL       0.250000       1.00800           0
     20368 MEMB     165      DOPC     H14C     HL       0.250000       1.00800           0
     20369 MEMB     165      DOPC     C15      CTL5    -0.350000       12.0110           0
     20370 MEMB     165      DOPC     H15A     HL       0.250000       1.00800           0
     20371 MEMB     165      DOPC     H15B     HL       0.250000       1.00800           0
     20372 MEMB     165      DOPC     H15C     HL       0.250000       1.00800           0
     20373 MEMB     165      DOPC     C11      CTL2    -0.800000E-01   12.0110           0
     20374 MEMB     165      DOPC     H11A     HAL2     0.900000E-01   1.00800           0
     20375 MEMB     165      DOPC     H11B     HAL2     0.900000E-01   1.00800           0
     20376 MEMB     165      DOPC     P        PL        1.50000       30.9740           0
     20377 MEMB     165      DOPC     O13      O2L     -0.780000       15.9994           0
     20378 MEMB     165      DOPC     O14      O2L     -0.780000       15.9994           0
     20379 MEMB     165      DOPC     O12      OSLP    -0.570000       15.9994           0
     20380 MEMB     165      DOPC     O11      OSLP    -0.570000       15.9994           0
     20381 MEMB     165      DOPC     C1       CTL2    -0.800000E-01   12.0110           0
     20382 MEMB     165      DOPC     HA       HAL2     0.900000E-01   1.00800           0
     20383 MEMB     165      DOPC     HB       HAL2     0.900000E-01   1.00800           0
     20384 MEMB     165      DOPC     C2       CTL1     0.170000       12.0110           0
     20385 MEMB     165      DOPC     HS       HAL1     0.900000E-01   1.00800           0
     20386 MEMB     165      DOPC     O21      OSL     -0.490000       15.9994           0
     20387 MEMB     165      DOPC     C21      CL       0.900000       12.0110           0
     20388 MEMB     165      DOPC     O22      OBL     -0.630000       15.9994           0
     20389 MEMB     165      DOPC     C22      CTL2    -0.220000       12.0110           0
     20390 MEMB     165      DOPC     H2R      HAL2     0.900000E-01   1.00800           0
     20391 MEMB     165      DOPC     H2S      HAL2     0.900000E-01   1.00800           0
     20392 MEMB     165      DOPC     C3       CTL2     0.800000E-01   12.0110           0
     20393 MEMB     165      DOPC     HX       HAL2     0.900000E-01   1.00800           0
     20394 MEMB     165      DOPC     HY       HAL2     0.900000E-01   1.00800           0
     20395 MEMB     165      DOPC     O31      OSL     -0.490000       15.9994           0
     20396 MEMB     165      DOPC     C31      CL       0.900000       12.0110           0
     20397 MEMB     165      DOPC     O32      OBL     -0.630000       15.9994           0
     20398 MEMB     165      DOPC     C32      CTL2    -0.220000       12.0110           0
     20399 MEMB     165      DOPC     H2X      HAL2     0.900000E-01   1.00800           0
     20400 MEMB     165      DOPC     H2Y      HAL2     0.900000E-01   1.00800           0
     20401 MEMB     165      DOPC     C23      CTL2    -0.180000       12.0110           0
     20402 MEMB     165      DOPC     H3R      HAL2     0.900000E-01   1.00800           0
     20403 MEMB     165      DOPC     H3S      HAL2     0.900000E-01   1.00800           0
     20404 MEMB     165      DOPC     C24      CTL2    -0.180000       12.0110           0
     20405 MEMB     165      DOPC     H4R      HAL2     0.900000E-01   1.00800           0
     20406 MEMB     165      DOPC     H4S      HAL2     0.900000E-01   1.00800           0
     20407 MEMB     165      DOPC     C25      CTL2    -0.180000       12.0110           0
     20408 MEMB     165      DOPC     H5R      HAL2     0.900000E-01   1.00800           0
     20409 MEMB     165      DOPC     H5S      HAL2     0.900000E-01   1.00800           0
     20410 MEMB     165      DOPC     C26      CTL2    -0.180000       12.0110           0
     20411 MEMB     165      DOPC     H6R      HAL2     0.900000E-01   1.00800           0
     20412 MEMB     165      DOPC     H6S      HAL2     0.900000E-01   1.00800           0
     20413 MEMB     165      DOPC     C27      CTL2    -0.180000       12.0110           0
     20414 MEMB     165      DOPC     H7R      HAL2     0.900000E-01   1.00800           0
     20415 MEMB     165      DOPC     H7S      HAL2     0.900000E-01   1.00800           0
     20416 MEMB     165      DOPC     C28      CTL2    -0.180000       12.0110           0
     20417 MEMB     165      DOPC     H8R      HAL2     0.900000E-01   1.00800           0
     20418 MEMB     165      DOPC     H8S      HAL2     0.900000E-01   1.00800           0
     20419 MEMB     165      DOPC     C29      CEL1    -0.150000       12.0110           0
     20420 MEMB     165      DOPC     H9R      HEL1     0.150000       1.00800           0
     20421 MEMB     165      DOPC     C210     CEL1    -0.150000       12.0110           0
     20422 MEMB     165      DOPC     H10R     HEL1     0.150000       1.00800           0
     20423 MEMB     165      DOPC     C211     CTL2    -0.180000       12.0110           0
     20424 MEMB     165      DOPC     H11R     HAL2     0.900000E-01   1.00800           0
     20425 MEMB     165      DOPC     H11S     HAL2     0.900000E-01   1.00800           0
     20426 MEMB     165      DOPC     C212     CTL2    -0.180000       12.0110           0
     20427 MEMB     165      DOPC     H12R     HAL2     0.900000E-01   1.00800           0
     20428 MEMB     165      DOPC     H12S     HAL2     0.900000E-01   1.00800           0
     20429 MEMB     165      DOPC     C213     CTL2    -0.180000       12.0110           0
     20430 MEMB     165      DOPC     H13R     HAL2     0.900000E-01   1.00800           0
     20431 MEMB     165      DOPC     H13S     HAL2     0.900000E-01   1.00800           0
     20432 MEMB     165      DOPC     C214     CTL2    -0.180000       12.0110           0
     20433 MEMB     165      DOPC     H14R     HAL2     0.900000E-01   1.00800           0
     20434 MEMB     165      DOPC     H14S     HAL2     0.900000E-01   1.00800           0
     20435 MEMB     165      DOPC     C215     CTL2    -0.180000       12.0110           0
     20436 MEMB     165      DOPC     H15R     HAL2     0.900000E-01   1.00800           0
     20437 MEMB     165      DOPC     H15S     HAL2     0.900000E-01   1.00800           0
     20438 MEMB     165      DOPC     C216     CTL2    -0.180000       12.0110           0
     20439 MEMB     165      DOPC     H16R     HAL2     0.900000E-01   1.00800           0
     20440 MEMB     165      DOPC     H16S     HAL2     0.900000E-01   1.00800           0
     20441 MEMB     165      DOPC     C217     CTL2    -0.180000       12.0110           0
     20442 MEMB     165      DOPC     H17R     HAL2     0.900000E-01   1.00800           0
     20443 MEMB     165      DOPC     H17S     HAL2     0.900000E-01   1.00800           0
     20444 MEMB     165      DOPC     C218     CTL3    -0.270000       12.0110           0
     20445 MEMB     165      DOPC     H18R     HAL3     0.900000E-01   1.00800           0
     20446 MEMB     165      DOPC     H18S     HAL3     0.900000E-01   1.00800           0
     20447 MEMB     165      DOPC     H18T     HAL3     0.900000E-01   1.00800           0
     20448 MEMB     165      DOPC     C33      CTL2    -0.180000       12.0110           0
     20449 MEMB     165      DOPC     H3X      HAL2     0.900000E-01   1.00800           0
     20450 MEMB     165      DOPC     H3Y      HAL2     0.900000E-01   1.00800           0
     20451 MEMB     165      DOPC     C34      CTL2    -0.180000       12.0110           0
     20452 MEMB     165      DOPC     H4X      HAL2     0.900000E-01   1.00800           0
     20453 MEMB     165      DOPC     H4Y      HAL2     0.900000E-01   1.00800           0
     20454 MEMB     165      DOPC     C35      CTL2    -0.180000       12.0110           0
     20455 MEMB     165      DOPC     H5X      HAL2     0.900000E-01   1.00800           0
     20456 MEMB     165      DOPC     H5Y      HAL2     0.900000E-01   1.00800           0
     20457 MEMB     165      DOPC     C36      CTL2    -0.180000       12.0110           0
     20458 MEMB     165      DOPC     H6X      HAL2     0.900000E-01   1.00800           0
     20459 MEMB     165      DOPC     H6Y      HAL2     0.900000E-01   1.00800           0
     20460 MEMB     165      DOPC     C37      CTL2    -0.180000       12.0110           0
     20461 MEMB     165      DOPC     H7X      HAL2     0.900000E-01   1.00800           0
     20462 MEMB     165      DOPC     H7Y      HAL2     0.900000E-01   1.00800           0
     20463 MEMB     165      DOPC     C38      CTL2    -0.180000       12.0110           0
     20464 MEMB     165      DOPC     H8X      HAL2     0.900000E-01   1.00800           0
     20465 MEMB     165      DOPC     H8Y      HAL2     0.900000E-01   1.00800           0
     20466 MEMB     165      DOPC     C39      CEL1    -0.150000       12.0110           0
     20467 MEMB     165      DOPC     H9X      HEL1     0.150000       1.00800           0
     20468 MEMB     165      DOPC     C310     CEL1    -0.150000       12.0110           0
     20469 MEMB     165      DOPC     H10X     HEL1     0.150000       1.00800           0
     20470 MEMB     165      DOPC     C311     CTL2    -0.180000       12.0110           0
     20471 MEMB     165      DOPC     H11X     HAL2     0.900000E-01   1.00800           0
     20472 MEMB     165      DOPC     H11Y     HAL2     0.900000E-01   1.00800           0
     20473 MEMB     165      DOPC     C312     CTL2    -0.180000       12.0110           0
     20474 MEMB     165      DOPC     H12X     HAL2     0.900000E-01   1.00800           0
     20475 MEMB     165      DOPC     H12Y     HAL2     0.900000E-01   1.00800           0
     20476 MEMB     165      DOPC     C313     CTL2    -0.180000       12.0110           0
     20477 MEMB     165      DOPC     H13X     HAL2     0.900000E-01   1.00800           0
     20478 MEMB     165      DOPC     H13Y     HAL2     0.900000E-01   1.00800           0
     20479 MEMB     165      DOPC     C314     CTL2    -0.180000       12.0110           0
     20480 MEMB     165      DOPC     H14X     HAL2     0.900000E-01   1.00800           0
     20481 MEMB     165      DOPC     H14Y     HAL2     0.900000E-01   1.00800           0
     20482 MEMB     165      DOPC     C315     CTL2    -0.180000       12.0110           0
     20483 MEMB     165      DOPC     H15X     HAL2     0.900000E-01   1.00800           0
     20484 MEMB     165      DOPC     H15Y     HAL2     0.900000E-01   1.00800           0
     20485 MEMB     165      DOPC     C316     CTL2    -0.180000       12.0110           0
     20486 MEMB     165      DOPC     H16X     HAL2     0.900000E-01   1.00800           0
     20487 MEMB     165      DOPC     H16Y     HAL2     0.900000E-01   1.00800           0
     20488 MEMB     165      DOPC     C317     CTL2    -0.180000       12.0110           0
     20489 MEMB     165      DOPC     H17X     HAL2     0.900000E-01   1.00800           0
     20490 MEMB     165      DOPC     H17Y     HAL2     0.900000E-01   1.00800           0
     20491 MEMB     165      DOPC     C318     CTL3    -0.270000       12.0110           0
     20492 MEMB     165      DOPC     H18X     HAL3     0.900000E-01   1.00800           0
     20493 MEMB     165      DOPC     H18Y     HAL3     0.900000E-01   1.00800           0
     20494 MEMB     165      DOPC     H18Z     HAL3     0.900000E-01   1.00800           0
     20495 MEMB     166      DOPC     N        NTL     -0.600000       14.0070           0
     20496 MEMB     166      DOPC     C12      CTL2    -0.100000       12.0110           0
     20497 MEMB     166      DOPC     H12A     HL       0.250000       1.00800           0
     20498 MEMB     166      DOPC     H12B     HL       0.250000       1.00800           0
     20499 MEMB     166      DOPC     C13      CTL5    -0.350000       12.0110           0
     20500 MEMB     166      DOPC     H13A     HL       0.250000       1.00800           0
     20501 MEMB     166      DOPC     H13B     HL       0.250000       1.00800           0
     20502 MEMB     166      DOPC     H13C     HL       0.250000       1.00800           0
     20503 MEMB     166      DOPC     C14      CTL5    -0.350000       12.0110           0
     20504 MEMB     166      DOPC     H14A     HL       0.250000       1.00800           0
     20505 MEMB     166      DOPC     H14B     HL       0.250000       1.00800           0
     20506 MEMB     166      DOPC     H14C     HL       0.250000       1.00800           0
     20507 MEMB     166      DOPC     C15      CTL5    -0.350000       12.0110           0
     20508 MEMB     166      DOPC     H15A     HL       0.250000       1.00800           0
     20509 MEMB     166      DOPC     H15B     HL       0.250000       1.00800           0
     20510 MEMB     166      DOPC     H15C     HL       0.250000       1.00800           0
     20511 MEMB     166      DOPC     C11      CTL2    -0.800000E-01   12.0110           0
     20512 MEMB     166      DOPC     H11A     HAL2     0.900000E-01   1.00800           0
     20513 MEMB     166      DOPC     H11B     HAL2     0.900000E-01   1.00800           0
     20514 MEMB     166      DOPC     P        PL        1.50000       30.9740           0
     20515 MEMB     166      DOPC     O13      O2L     -0.780000       15.9994           0
     20516 MEMB     166      DOPC     O14      O2L     -0.780000       15.9994           0
     20517 MEMB     166      DOPC     O12      OSLP    -0.570000       15.9994           0
     20518 MEMB     166      DOPC     O11      OSLP    -0.570000       15.9994           0
     20519 MEMB     166      DOPC     C1       CTL2    -0.800000E-01   12.0110           0
     20520 MEMB     166      DOPC     HA       HAL2     0.900000E-01   1.00800           0
     20521 MEMB     166      DOPC     HB       HAL2     0.900000E-01   1.00800           0
     20522 MEMB     166      DOPC     C2       CTL1     0.170000       12.0110           0
     20523 MEMB     166      DOPC     HS       HAL1     0.900000E-01   1.00800           0
     20524 MEMB     166      DOPC     O21      OSL     -0.490000       15.9994           0
     20525 MEMB     166      DOPC     C21      CL       0.900000       12.0110           0
     20526 MEMB     166      DOPC     O22      OBL     -0.630000       15.9994           0
     20527 MEMB     166      DOPC     C22      CTL2    -0.220000       12.0110           0
     20528 MEMB     166      DOPC     H2R      HAL2     0.900000E-01   1.00800           0
     20529 MEMB     166      DOPC     H2S      HAL2     0.900000E-01   1.00800           0
     20530 MEMB     166      DOPC     C3       CTL2     0.800000E-01   12.0110           0
     20531 MEMB     166      DOPC     HX       HAL2     0.900000E-01   1.00800           0
     20532 MEMB     166      DOPC     HY       HAL2     0.900000E-01   1.00800           0
     20533 MEMB     166      DOPC     O31      OSL     -0.490000       15.9994           0
     20534 MEMB     166      DOPC     C31      CL       0.900000       12.0110           0
     20535 MEMB     166      DOPC     O32      OBL     -0.630000       15.9994           0
     20536 MEMB     166      DOPC     C32      CTL2    -0.220000       12.0110           0
     20537 MEMB     166      DOPC     H2X      HAL2     0.900000E-01   1.00800           0
     20538 MEMB     166      DOPC     H2Y      HAL2     0.900000E-01   1.00800           0
     20539 MEMB     166      DOPC     C23      CTL2    -0.180000       12.0110           0
     20540 MEMB     166      DOPC     H3R      HAL2     0.900000E-01   1.00800           0
     20541 MEMB     166      DOPC     H3S      HAL2     0.900000E-01   1.00800           0
     20542 MEMB     166      DOPC     C24      CTL2    -0.180000       12.0110           0
     20543 MEMB     166      DOPC     H4R      HAL2     0.900000E-01   1.00800           0
     20544 MEMB     166      DOPC     H4S      HAL2     0.900000E-01   1.00800           0
     20545 MEMB     166      DOPC     C25      CTL2    -0.180000       12.0110           0
     20546 MEMB     166      DOPC     H5R      HAL2     0.900000E-01   1.00800           0
     20547 MEMB     166      DOPC     H5S      HAL2     0.900000E-01   1.00800           0
     20548 MEMB     166      DOPC     C26      CTL2    -0.180000       12.0110           0
     20549 MEMB     166      DOPC     H6R      HAL2     0.900000E-01   1.00800           0
     20550 MEMB     166      DOPC     H6S      HAL2     0.900000E-01   1.00800           0
     20551 MEMB     166      DOPC     C27      CTL2    -0.180000       12.0110           0
     20552 MEMB     166      DOPC     H7R      HAL2     0.900000E-01   1.00800           0
     20553 MEMB     166      DOPC     H7S      HAL2     0.900000E-01   1.00800           0
     20554 MEMB     166      DOPC     C28      CTL2    -0.180000       12.0110           0
     20555 MEMB     166      DOPC     H8R      HAL2     0.900000E-01   1.00800           0
     20556 MEMB     166      DOPC     H8S      HAL2     0.900000E-01   1.00800           0
     20557 MEMB     166      DOPC     C29      CEL1    -0.150000       12.0110           0
     20558 MEMB     166      DOPC     H9R      HEL1     0.150000       1.00800           0
     20559 MEMB     166      DOPC     C210     CEL1    -0.150000       12.0110           0
     20560 MEMB     166      DOPC     H10R     HEL1     0.150000       1.00800           0
     20561 MEMB     166      DOPC     C211     CTL2    -0.180000       12.0110           0
     20562 MEMB     166      DOPC     H11R     HAL2     0.900000E-01   1.00800           0
     20563 MEMB     166      DOPC     H11S     HAL2     0.900000E-01   1.00800           0
     20564 MEMB     166      DOPC     C212     CTL2    -0.180000       12.0110           0
     20565 MEMB     166      DOPC     H12R     HAL2     0.900000E-01   1.00800           0
     20566 MEMB     166      DOPC     H12S     HAL2     0.900000E-01   1.00800           0
     20567 MEMB     166      DOPC     C213     CTL2    -0.180000       12.0110           0
     20568 MEMB     166      DOPC     H13R     HAL2     0.900000E-01   1.00800           0
     20569 MEMB     166      DOPC     H13S     HAL2     0.900000E-01   1.00800           0
     20570 MEMB     166      DOPC     C214     CTL2    -0.180000       12.0110           0
     20571 MEMB     166      DOPC     H14R     HAL2     0.900000E-01   1.00800           0
     20572 MEMB     166      DOPC     H14S     HAL2     0.900000E-01   1.00800           0
     20573 MEMB     166      DOPC     C215     CTL2    -0.180000       12.0110           0
     20574 MEMB     166      DOPC     H15R     HAL2     0.900000E-01   1.00800           0
     20575 MEMB     166      DOPC     H15S     HAL2     0.900000E-01   1.00800           0
     20576 MEMB     166      DOPC     C216     CTL2    -0.180000       12.0110           0
     20577 MEMB     166      DOPC     H16R     HAL2     0.900000E-01   1.00800           0
     20578 MEMB     166      DOPC     H16S     HAL2     0.900000E-01   1.00800           0
     20579 MEMB     166      DOPC     C217     CTL2    -0.180000       12.0110           0
     20580 MEMB     166      DOPC     H17R     HAL2     0.900000E-01   1.00800           0
     20581 MEMB     166      DOPC     H17S     HAL2     0.900000E-01   1.00800           0
     20582 MEMB     166      DOPC     C218     CTL3    -0.270000       12.0110           0
     20583 MEMB     166      DOPC     H18R     HAL3     0.900000E-01   1.00800           0
     20584 MEMB     166      DOPC     H18S     HAL3     0.900000E-01   1.00800           0
     20585 MEMB     166      DOPC     H18T     HAL3     0.900000E-01   1.00800           0
     20586 MEMB     166      DOPC     C33      CTL2    -0.180000       12.0110           0
     20587 MEMB     166      DOPC     H3X      HAL2     0.900000E-01   1.00800           0
     20588 MEMB     166      DOPC     H3Y      HAL2     0.900000E-01   1.00800           0
     20589 MEMB     166      DOPC     C34      CTL2    -0.180000       12.0110           0
     20590 MEMB     166      DOPC     H4X      HAL2     0.900000E-01   1.00800           0
     20591 MEMB     166      DOPC     H4Y      HAL2     0.900000E-01   1.00800           0
     20592 MEMB     166      DOPC     C35      CTL2    -0.180000       12.0110           0
     20593 MEMB     166      DOPC     H5X      HAL2     0.900000E-01   1.00800           0
     20594 MEMB     166      DOPC     H5Y      HAL2     0.900000E-01   1.00800           0
     20595 MEMB     166      DOPC     C36      CTL2    -0.180000       12.0110           0
     20596 MEMB     166      DOPC     H6X      HAL2     0.900000E-01   1.00800           0
     20597 MEMB     166      DOPC     H6Y      HAL2     0.900000E-01   1.00800           0
     20598 MEMB     166      DOPC     C37      CTL2    -0.180000       12.0110           0
     20599 MEMB     166      DOPC     H7X      HAL2     0.900000E-01   1.00800           0
     20600 MEMB     166      DOPC     H7Y      HAL2     0.900000E-01   1.00800           0
     20601 MEMB     166      DOPC     C38      CTL2    -0.180000       12.0110           0
     20602 MEMB     166      DOPC     H8X      HAL2     0.900000E-01   1.00800           0
     20603 MEMB     166      DOPC     H8Y      HAL2     0.900000E-01   1.00800           0
     20604 MEMB     166      DOPC     C39      CEL1    -0.150000       12.0110           0
     20605 MEMB     166      DOPC     H9X      HEL1     0.150000       1.00800           0
     20606 MEMB     166      DOPC     C310     CEL1    -0.150000       12.0110           0
     20607 MEMB     166      DOPC     H10X     HEL1     0.150000       1.00800           0
     20608 MEMB     166      DOPC     C311     CTL2    -0.180000       12.0110           0
     20609 MEMB     166      DOPC     H11X     HAL2     0.900000E-01   1.00800           0
     20610 MEMB     166      DOPC     H11Y     HAL2     0.900000E-01   1.00800           0
     20611 MEMB     166      DOPC     C312     CTL2    -0.180000       12.0110           0
     20612 MEMB     166      DOPC     H12X     HAL2     0.900000E-01   1.00800           0
     20613 MEMB     166      DOPC     H12Y     HAL2     0.900000E-01   1.00800           0
     20614 MEMB     166      DOPC     C313     CTL2    -0.180000       12.0110           0
     20615 MEMB     166      DOPC     H13X     HAL2     0.900000E-01   1.00800           0
     20616 MEMB     166      DOPC     H13Y     HAL2     0.900000E-01   1.00800           0
     20617 MEMB     166      DOPC     C314     CTL2    -0.180000       12.0110           0
     20618 MEMB     166      DOPC     H14X     HAL2     0.900000E-01   1.00800           0
     20619 MEMB     166      DOPC     H14Y     HAL2     0.900000E-01   1.00800           0
     20620 MEMB     166      DOPC     C315     CTL2    -0.180000       12.0110           0
     20621 MEMB     166      DOPC     H15X     HAL2     0.900000E-01   1.00800           0
     20622 MEMB     166      DOPC     H15Y     HAL2     0.900000E-01   1.00800           0
     20623 MEMB     166      DOPC     C316     CTL2    -0.180000       12.0110           0
     20624 MEMB     166      DOPC     H16X     HAL2     0.900000E-01   1.00800           0
     20625 MEMB     166      DOPC     H16Y     HAL2     0.900000E-01   1.00800           0
     20626 MEMB     166      DOPC     C317     CTL2    -0.180000       12.0110           0
     20627 MEMB     166      DOPC     H17X     HAL2     0.900000E-01   1.00800           0
     20628 MEMB     166      DOPC     H17Y     HAL2     0.900000E-01   1.00800           0
     20629 MEMB     166      DOPC     C318     CTL3    -0.270000       12.0110           0
     20630 MEMB     166      DOPC     H18X     HAL3     0.900000E-01   1.00800           0
     20631 MEMB     166      DOPC     H18Y     HAL3     0.900000E-01   1.00800           0
     20632 MEMB     166      DOPC     H18Z     HAL3     0.900000E-01   1.00800           0
     20633 MEMB     167      DOPE     N        NH3L    -0.300000       14.0070           0
     20634 MEMB     167      DOPE     HN1      HCL      0.330000       1.00800           0
     20635 MEMB     167      DOPE     HN2      HCL      0.330000       1.00800           0
     20636 MEMB     167      DOPE     HN3      HCL      0.330000       1.00800           0
     20637 MEMB     167      DOPE     C12      CTL2     0.130000       12.0110           0
     20638 MEMB     167      DOPE     H12A     HAL2     0.900000E-01   1.00800           0
     20639 MEMB     167      DOPE     H12B     HAL2     0.900000E-01   1.00800           0
     20640 MEMB     167      DOPE     C11      CTL2    -0.800000E-01   12.0110           0
     20641 MEMB     167      DOPE     H11A     HAL2     0.900000E-01   1.00800           0
     20642 MEMB     167      DOPE     H11B     HAL2     0.900000E-01   1.00800           0
     20643 MEMB     167      DOPE     P        PL        1.50000       30.9740           0
     20644 MEMB     167      DOPE     O13      O2L     -0.780000       15.9994           0
     20645 MEMB     167      DOPE     O14      O2L     -0.780000       15.9994           0
     20646 MEMB     167      DOPE     O11      OSLP    -0.570000       15.9994           0
     20647 MEMB     167      DOPE     O12      OSLP    -0.570000       15.9994           0
     20648 MEMB     167      DOPE     C1       CTL2    -0.800000E-01   12.0110           0
     20649 MEMB     167      DOPE     HA       HAL2     0.900000E-01   1.00800           0
     20650 MEMB     167      DOPE     HB       HAL2     0.900000E-01   1.00800           0
     20651 MEMB     167      DOPE     C2       CTL1     0.170000       12.0110           0
     20652 MEMB     167      DOPE     HS       HAL1     0.900000E-01   1.00800           0
     20653 MEMB     167      DOPE     O21      OSL     -0.490000       15.9994           0
     20654 MEMB     167      DOPE     C21      CL       0.900000       12.0110           0
     20655 MEMB     167      DOPE     O22      OBL     -0.630000       15.9994           0
     20656 MEMB     167      DOPE     C22      CTL2    -0.220000       12.0110           0
     20657 MEMB     167      DOPE     H2R      HAL2     0.900000E-01   1.00800           0
     20658 MEMB     167      DOPE     H2S      HAL2     0.900000E-01   1.00800           0
     20659 MEMB     167      DOPE     C3       CTL2     0.800000E-01   12.0110           0
     20660 MEMB     167      DOPE     HX       HAL2     0.900000E-01   1.00800           0
     20661 MEMB     167      DOPE     HY       HAL2     0.900000E-01   1.00800           0
     20662 MEMB     167      DOPE     O31      OSL     -0.490000       15.9994           0
     20663 MEMB     167      DOPE     C31      CL       0.900000       12.0110           0
     20664 MEMB     167      DOPE     O32      OBL     -0.630000       15.9994           0
     20665 MEMB     167      DOPE     C32      CTL2    -0.220000       12.0110           0
     20666 MEMB     167      DOPE     H2X      HAL2     0.900000E-01   1.00800           0
     20667 MEMB     167      DOPE     H2Y      HAL2     0.900000E-01   1.00800           0
     20668 MEMB     167      DOPE     C23      CTL2    -0.180000       12.0110           0
     20669 MEMB     167      DOPE     H3R      HAL2     0.900000E-01   1.00800           0
     20670 MEMB     167      DOPE     H3S      HAL2     0.900000E-01   1.00800           0
     20671 MEMB     167      DOPE     C24      CTL2    -0.180000       12.0110           0
     20672 MEMB     167      DOPE     H4R      HAL2     0.900000E-01   1.00800           0
     20673 MEMB     167      DOPE     H4S      HAL2     0.900000E-01   1.00800           0
     20674 MEMB     167      DOPE     C25      CTL2    -0.180000       12.0110           0
     20675 MEMB     167      DOPE     H5R      HAL2     0.900000E-01   1.00800           0
     20676 MEMB     167      DOPE     H5S      HAL2     0.900000E-01   1.00800           0
     20677 MEMB     167      DOPE     C26      CTL2    -0.180000       12.0110           0
     20678 MEMB     167      DOPE     H6R      HAL2     0.900000E-01   1.00800           0
     20679 MEMB     167      DOPE     H6S      HAL2     0.900000E-01   1.00800           0
     20680 MEMB     167      DOPE     C27      CTL2    -0.180000       12.0110           0
     20681 MEMB     167      DOPE     H7R      HAL2     0.900000E-01   1.00800           0
     20682 MEMB     167      DOPE     H7S      HAL2     0.900000E-01   1.00800           0
     20683 MEMB     167      DOPE     C28      CTL2    -0.180000       12.0110           0
     20684 MEMB     167      DOPE     H8R      HAL2     0.900000E-01   1.00800           0
     20685 MEMB     167      DOPE     H8S      HAL2     0.900000E-01   1.00800           0
     20686 MEMB     167      DOPE     C29      CEL1    -0.150000       12.0110           0
     20687 MEMB     167      DOPE     H9R      HEL1     0.150000       1.00800           0
     20688 MEMB     167      DOPE     C210     CEL1    -0.150000       12.0110           0
     20689 MEMB     167      DOPE     H10R     HEL1     0.150000       1.00800           0
     20690 MEMB     167      DOPE     C211     CTL2    -0.180000       12.0110           0
     20691 MEMB     167      DOPE     H11R     HAL2     0.900000E-01   1.00800           0
     20692 MEMB     167      DOPE     H11S     HAL2     0.900000E-01   1.00800           0
     20693 MEMB     167      DOPE     C212     CTL2    -0.180000       12.0110           0
     20694 MEMB     167      DOPE     H12R     HAL2     0.900000E-01   1.00800           0
     20695 MEMB     167      DOPE     H12S     HAL2     0.900000E-01   1.00800           0
     20696 MEMB     167      DOPE     C213     CTL2    -0.180000       12.0110           0
     20697 MEMB     167      DOPE     H13R     HAL2     0.900000E-01   1.00800           0
     20698 MEMB     167      DOPE     H13S     HAL2     0.900000E-01   1.00800           0
     20699 MEMB     167      DOPE     C214     CTL2    -0.180000       12.0110           0
     20700 MEMB     167      DOPE     H14R     HAL2     0.900000E-01   1.00800           0
     20701 MEMB     167      DOPE     H14S     HAL2     0.900000E-01   1.00800           0
     20702 MEMB     167      DOPE     C215     CTL2    -0.180000       12.0110           0
     20703 MEMB     167      DOPE     H15R     HAL2     0.900000E-01   1.00800           0
     20704 MEMB     167      DOPE     H15S     HAL2     0.900000E-01   1.00800           0
     20705 MEMB     167      DOPE     C216     CTL2    -0.180000       12.0110           0
     20706 MEMB     167      DOPE     H16R     HAL2     0.900000E-01   1.00800           0
     20707 MEMB     167      DOPE     H16S     HAL2     0.900000E-01   1.00800           0
     20708 MEMB     167      DOPE     C217     CTL2    -0.180000       12.0110           0
     20709 MEMB     167      DOPE     H17R     HAL2     0.900000E-01   1.00800           0
     20710 MEMB     167      DOPE     H17S     HAL2     0.900000E-01   1.00800           0
     20711 MEMB     167      DOPE     C218     CTL3    -0.270000       12.0110           0
     20712 MEMB     167      DOPE     H18R     HAL3     0.900000E-01   1.00800           0
     20713 MEMB     167      DOPE     H18S     HAL3     0.900000E-01   1.00800           0
     20714 MEMB     167      DOPE     H18T     HAL3     0.900000E-01   1.00800           0
     20715 MEMB     167      DOPE     C33      CTL2    -0.180000       12.0110           0
     20716 MEMB     167      DOPE     H3X      HAL2     0.900000E-01   1.00800           0
     20717 MEMB     167      DOPE     H3Y      HAL2     0.900000E-01   1.00800           0
     20718 MEMB     167      DOPE     C34      CTL2    -0.180000       12.0110           0
     20719 MEMB     167      DOPE     H4X      HAL2     0.900000E-01   1.00800           0
     20720 MEMB     167      DOPE     H4Y      HAL2     0.900000E-01   1.00800           0
     20721 MEMB     167      DOPE     C35      CTL2    -0.180000       12.0110           0
     20722 MEMB     167      DOPE     H5X      HAL2     0.900000E-01   1.00800           0
     20723 MEMB     167      DOPE     H5Y      HAL2     0.900000E-01   1.00800           0
     20724 MEMB     167      DOPE     C36      CTL2    -0.180000       12.0110           0
     20725 MEMB     167      DOPE     H6X      HAL2     0.900000E-01   1.00800           0
     20726 MEMB     167      DOPE     H6Y      HAL2     0.900000E-01   1.00800           0
     20727 MEMB     167      DOPE     C37      CTL2    -0.180000       12.0110           0
     20728 MEMB     167      DOPE     H7X      HAL2     0.900000E-01   1.00800           0
     20729 MEMB     167      DOPE     H7Y      HAL2     0.900000E-01   1.00800           0
     20730 MEMB     167      DOPE     C38      CTL2    -0.180000       12.0110           0
     20731 MEMB     167      DOPE     H8X      HAL2     0.900000E-01   1.00800           0
     20732 MEMB     167      DOPE     H8Y      HAL2     0.900000E-01   1.00800           0
     20733 MEMB     167      DOPE     C39      CEL1    -0.150000       12.0110           0
     20734 MEMB     167      DOPE     H9X      HEL1     0.150000       1.00800           0
     20735 MEMB     167      DOPE     C310     CEL1    -0.150000       12.0110           0
     20736 MEMB     167      DOPE     H10X     HEL1     0.150000       1.00800           0
     20737 MEMB     167      DOPE     C311     CTL2    -0.180000       12.0110           0
     20738 MEMB     167      DOPE     H11X     HAL2     0.900000E-01   1.00800           0
     20739 MEMB     167      DOPE     H11Y     HAL2     0.900000E-01   1.00800           0
     20740 MEMB     167      DOPE     C312     CTL2    -0.180000       12.0110           0
     20741 MEMB     167      DOPE     H12X     HAL2     0.900000E-01   1.00800           0
     20742 MEMB     167      DOPE     H12Y     HAL2     0.900000E-01   1.00800           0
     20743 MEMB     167      DOPE     C313     CTL2    -0.180000       12.0110           0
     20744 MEMB     167      DOPE     H13X     HAL2     0.900000E-01   1.00800           0
     20745 MEMB     167      DOPE     H13Y     HAL2     0.900000E-01   1.00800           0
     20746 MEMB     167      DOPE     C314     CTL2    -0.180000       12.0110           0
     20747 MEMB     167      DOPE     H14X     HAL2     0.900000E-01   1.00800           0
     20748 MEMB     167      DOPE     H14Y     HAL2     0.900000E-01   1.00800           0
     20749 MEMB     167      DOPE     C315     CTL2    -0.180000       12.0110           0
     20750 MEMB     167      DOPE     H15X     HAL2     0.900000E-01   1.00800           0
     20751 MEMB     167      DOPE     H15Y     HAL2     0.900000E-01   1.00800           0
     20752 MEMB     167      DOPE     C316     CTL2    -0.180000       12.0110           0
     20753 MEMB     167      DOPE     H16X     HAL2     0.900000E-01   1.00800           0
     20754 MEMB     167      DOPE     H16Y     HAL2     0.900000E-01   1.00800           0
     20755 MEMB     167      DOPE     C317     CTL2    -0.180000       12.0110           0
     20756 MEMB     167      DOPE     H17X     HAL2     0.900000E-01   1.00800           0
     20757 MEMB     167      DOPE     H17Y     HAL2     0.900000E-01   1.00800           0
     20758 MEMB     167      DOPE     C318     CTL3    -0.270000       12.0110           0
     20759 MEMB     167      DOPE     H18X     HAL3     0.900000E-01   1.00800           0
     20760 MEMB     167      DOPE     H18Y     HAL3     0.900000E-01   1.00800           0
     20761 MEMB     167      DOPE     H18Z     HAL3     0.900000E-01   1.00800           0
     20762 MEMB     168      CHL1     C3       CRL1     0.140000       12.0110           0
     20763 MEMB     168      CHL1     H3       HGA1     0.900000E-01   1.00800           0
     20764 MEMB     168      CHL1     O3       OHL     -0.660000       15.9994           0
     20765 MEMB     168      CHL1     H3'      HOL      0.430000       1.00800           0
     20766 MEMB     168      CHL1     C4       CRL2    -0.180000       12.0110           0
     20767 MEMB     168      CHL1     H4A      HGA2     0.900000E-01   1.00800           0
     20768 MEMB     168      CHL1     H4B      HGA2     0.900000E-01   1.00800           0
     20769 MEMB     168      CHL1     C5       CEL1      0.00000       12.0110           0
     20770 MEMB     168      CHL1     C6       CEL1    -0.150000       12.0110           0
     20771 MEMB     168      CHL1     H6       HEL1     0.150000       1.00800           0
     20772 MEMB     168      CHL1     C7       CRL2    -0.180000       12.0110           0
     20773 MEMB     168      CHL1     H7A      HGA2     0.900000E-01   1.00800           0
     20774 MEMB     168      CHL1     H7B      HGA2     0.900000E-01   1.00800           0
     20775 MEMB     168      CHL1     C8       CRL1    -0.900000E-01   12.0110           0
     20776 MEMB     168      CHL1     H8       HGA1     0.900000E-01   1.00800           0
     20777 MEMB     168      CHL1     C14      CRL1    -0.900000E-01   12.0110           0
     20778 MEMB     168      CHL1     H14      HGA1     0.900000E-01   1.00800           0
     20779 MEMB     168      CHL1     C15      CRL2    -0.180000       12.0110           0
     20780 MEMB     168      CHL1     H15A     HGA2     0.900000E-01   1.00800           0
     20781 MEMB     168      CHL1     H15B     HGA2     0.900000E-01   1.00800           0
     20782 MEMB     168      CHL1     C16      CRL2    -0.180000       12.0110           0
     20783 MEMB     168      CHL1     H16A     HGA2     0.900000E-01   1.00800           0
     20784 MEMB     168      CHL1     H16B     HGA2     0.900000E-01   1.00800           0
     20785 MEMB     168      CHL1     C17      CRL1    -0.900000E-01   12.0110           0
     20786 MEMB     168      CHL1     H17      HGA1     0.900000E-01   1.00800           0
     20787 MEMB     168      CHL1     C13      CRL1      0.00000       12.0110           0
     20788 MEMB     168      CHL1     C18      CTL3    -0.270000       12.0110           0
     20789 MEMB     168      CHL1     H18A     HAL3     0.900000E-01   1.00800           0
     20790 MEMB     168      CHL1     H18B     HAL3     0.900000E-01   1.00800           0
     20791 MEMB     168      CHL1     H18C     HAL3     0.900000E-01   1.00800           0
     20792 MEMB     168      CHL1     C12      CRL2    -0.180000       12.0110           0
     20793 MEMB     168      CHL1     H12A     HGA2     0.900000E-01   1.00800           0
     20794 MEMB     168      CHL1     H12B     HGA2     0.900000E-01   1.00800           0
     20795 MEMB     168      CHL1     C11      CRL2    -0.180000       12.0110           0
     20796 MEMB     168      CHL1     H11A     HGA2     0.900000E-01   1.00800           0
     20797 MEMB     168      CHL1     H11B     HGA2     0.900000E-01   1.00800           0
     20798 MEMB     168      CHL1     C9       CRL1    -0.900000E-01   12.0110           0
     20799 MEMB     168      CHL1     H9       HGA1     0.900000E-01   1.00800           0
     20800 MEMB     168      CHL1     C10      CRL1      0.00000       12.0110           0
     20801 MEMB     168      CHL1     C19      CTL3    -0.270000       12.0110           0
     20802 MEMB     168      CHL1     H19A     HAL3     0.900000E-01   1.00800           0
     20803 MEMB     168      CHL1     H19B     HAL3     0.900000E-01   1.00800           0
     20804 MEMB     168      CHL1     H19C     HAL3     0.900000E-01   1.00800           0
     20805 MEMB     168      CHL1     C1       CRL2    -0.180000       12.0110           0
     20806 MEMB     168      CHL1     H1A      HGA2     0.900000E-01   1.00800           0
     20807 MEMB     168      CHL1     H1B      HGA2     0.900000E-01   1.00800           0
     20808 MEMB     168      CHL1     C2       CRL2    -0.180000       12.0110           0
     20809 MEMB     168      CHL1     H2A      HGA2     0.900000E-01   1.00800           0
     20810 MEMB     168      CHL1     H2B      HGA2     0.900000E-01   1.00800           0
     20811 MEMB     168      CHL1     C20      CTL1    -0.900000E-01   12.0110           0
     20812 MEMB     168      CHL1     H20      HAL1     0.900000E-01   1.00800           0
     20813 MEMB     168      CHL1     C21      CTL3    -0.270000       12.0110           0
     20814 MEMB     168      CHL1     H21A     HAL3     0.900000E-01   1.00800           0
     20815 MEMB     168      CHL1     H21B     HAL3     0.900000E-01   1.00800           0
     20816 MEMB     168      CHL1     H21C     HAL3     0.900000E-01   1.00800           0
     20817 MEMB     168      CHL1     C22      CTL2    -0.180000       12.0110           0
     20818 MEMB     168      CHL1     H22A     HAL2     0.900000E-01   1.00800           0
     20819 MEMB     168      CHL1     H22B     HAL2     0.900000E-01   1.00800           0
     20820 MEMB     168      CHL1     C23      CTL2    -0.180000       12.0110           0
     20821 MEMB     168      CHL1     H23A     HAL2     0.900000E-01   1.00800           0
     20822 MEMB     168      CHL1     H23B     HAL2     0.900000E-01   1.00800           0
     20823 MEMB     168      CHL1     C24      CTL2    -0.180000       12.0110           0
     20824 MEMB     168      CHL1     H24A     HAL2     0.900000E-01   1.00800           0
     20825 MEMB     168      CHL1     H24B     HAL2     0.900000E-01   1.00800           0
     20826 MEMB     168      CHL1     C25      CTL1    -0.900000E-01   12.0110           0
     20827 MEMB     168      CHL1     H25      HAL1     0.900000E-01   1.00800           0
     20828 MEMB     168      CHL1     C26      CTL3    -0.270000       12.0110           0
     20829 MEMB     168      CHL1     H26A     HAL3     0.900000E-01   1.00800           0
     20830 MEMB     168      CHL1     H26B     HAL3     0.900000E-01   1.00800           0
     20831 MEMB     168      CHL1     H26C     HAL3     0.900000E-01   1.00800           0
     20832 MEMB     168      CHL1     C27      CTL3    -0.270000       12.0110           0
     20833 MEMB     168      CHL1     H27A     HAL3     0.900000E-01   1.00800           0
     20834 MEMB     168      CHL1     H27B     HAL3     0.900000E-01   1.00800           0
     20835 MEMB     168      CHL1     H27C     HAL3     0.900000E-01   1.00800           0
     20836 MEMB     169      DOPE     N        NH3L    -0.300000       14.0070           0
     20837 MEMB     169      DOPE     HN1      HCL      0.330000       1.00800           0
     20838 MEMB     169      DOPE     HN2      HCL      0.330000       1.00800           0
     20839 MEMB     169      DOPE     HN3      HCL      0.330000       1.00800           0
     20840 MEMB     169      DOPE     C12      CTL2     0.130000       12.0110           0
     20841 MEMB     169      DOPE     H12A     HAL2     0.900000E-01   1.00800           0
     20842 MEMB     169      DOPE     H12B     HAL2     0.900000E-01   1.00800           0
     20843 MEMB     169      DOPE     C11      CTL2    -0.800000E-01   12.0110           0
     20844 MEMB     169      DOPE     H11A     HAL2     0.900000E-01   1.00800           0
     20845 MEMB     169      DOPE     H11B     HAL2     0.900000E-01   1.00800           0
     20846 MEMB     169      DOPE     P        PL        1.50000       30.9740           0
     20847 MEMB     169      DOPE     O13      O2L     -0.780000       15.9994           0
     20848 MEMB     169      DOPE     O14      O2L     -0.780000       15.9994           0
     20849 MEMB     169      DOPE     O11      OSLP    -0.570000       15.9994           0
     20850 MEMB     169      DOPE     O12      OSLP    -0.570000       15.9994           0
     20851 MEMB     169      DOPE     C1       CTL2    -0.800000E-01   12.0110           0
     20852 MEMB     169      DOPE     HA       HAL2     0.900000E-01   1.00800           0
     20853 MEMB     169      DOPE     HB       HAL2     0.900000E-01   1.00800           0
     20854 MEMB     169      DOPE     C2       CTL1     0.170000       12.0110           0
     20855 MEMB     169      DOPE     HS       HAL1     0.900000E-01   1.00800           0
     20856 MEMB     169      DOPE     O21      OSL     -0.490000       15.9994           0
     20857 MEMB     169      DOPE     C21      CL       0.900000       12.0110           0
     20858 MEMB     169      DOPE     O22      OBL     -0.630000       15.9994           0
     20859 MEMB     169      DOPE     C22      CTL2    -0.220000       12.0110           0
     20860 MEMB     169      DOPE     H2R      HAL2     0.900000E-01   1.00800           0
     20861 MEMB     169      DOPE     H2S      HAL2     0.900000E-01   1.00800           0
     20862 MEMB     169      DOPE     C3       CTL2     0.800000E-01   12.0110           0
     20863 MEMB     169      DOPE     HX       HAL2     0.900000E-01   1.00800           0
     20864 MEMB     169      DOPE     HY       HAL2     0.900000E-01   1.00800           0
     20865 MEMB     169      DOPE     O31      OSL     -0.490000       15.9994           0
     20866 MEMB     169      DOPE     C31      CL       0.900000       12.0110           0
     20867 MEMB     169      DOPE     O32      OBL     -0.630000       15.9994           0
     20868 MEMB     169      DOPE     C32      CTL2    -0.220000       12.0110           0
     20869 MEMB     169      DOPE     H2X      HAL2     0.900000E-01   1.00800           0
     20870 MEMB     169      DOPE     H2Y      HAL2     0.900000E-01   1.00800           0
     20871 MEMB     169      DOPE     C23      CTL2    -0.180000       12.0110           0
     20872 MEMB     169      DOPE     H3R      HAL2     0.900000E-01   1.00800           0
     20873 MEMB     169      DOPE     H3S      HAL2     0.900000E-01   1.00800           0
     20874 MEMB     169      DOPE     C24      CTL2    -0.180000       12.0110           0
     20875 MEMB     169      DOPE     H4R      HAL2     0.900000E-01   1.00800           0
     20876 MEMB     169      DOPE     H4S      HAL2     0.900000E-01   1.00800           0
     20877 MEMB     169      DOPE     C25      CTL2    -0.180000       12.0110           0
     20878 MEMB     169      DOPE     H5R      HAL2     0.900000E-01   1.00800           0
     20879 MEMB     169      DOPE     H5S      HAL2     0.900000E-01   1.00800           0
     20880 MEMB     169      DOPE     C26      CTL2    -0.180000       12.0110           0
     20881 MEMB     169      DOPE     H6R      HAL2     0.900000E-01   1.00800           0
     20882 MEMB     169      DOPE     H6S      HAL2     0.900000E-01   1.00800           0
     20883 MEMB     169      DOPE     C27      CTL2    -0.180000       12.0110           0
     20884 MEMB     169      DOPE     H7R      HAL2     0.900000E-01   1.00800           0
     20885 MEMB     169      DOPE     H7S      HAL2     0.900000E-01   1.00800           0
     20886 MEMB     169      DOPE     C28      CTL2    -0.180000       12.0110           0
     20887 MEMB     169      DOPE     H8R      HAL2     0.900000E-01   1.00800           0
     20888 MEMB     169      DOPE     H8S      HAL2     0.900000E-01   1.00800           0
     20889 MEMB     169      DOPE     C29      CEL1    -0.150000       12.0110           0
     20890 MEMB     169      DOPE     H9R      HEL1     0.150000       1.00800           0
     20891 MEMB     169      DOPE     C210     CEL1    -0.150000       12.0110           0
     20892 MEMB     169      DOPE     H10R     HEL1     0.150000       1.00800           0
     20893 MEMB     169      DOPE     C211     CTL2    -0.180000       12.0110           0
     20894 MEMB     169      DOPE     H11R     HAL2     0.900000E-01   1.00800           0
     20895 MEMB     169      DOPE     H11S     HAL2     0.900000E-01   1.00800           0
     20896 MEMB     169      DOPE     C212     CTL2    -0.180000       12.0110           0
     20897 MEMB     169      DOPE     H12R     HAL2     0.900000E-01   1.00800           0
     20898 MEMB     169      DOPE     H12S     HAL2     0.900000E-01   1.00800           0
     20899 MEMB     169      DOPE     C213     CTL2    -0.180000       12.0110           0
     20900 MEMB     169      DOPE     H13R     HAL2     0.900000E-01   1.00800           0
     20901 MEMB     169      DOPE     H13S     HAL2     0.900000E-01   1.00800           0
     20902 MEMB     169      DOPE     C214     CTL2    -0.180000       12.0110           0
     20903 MEMB     169      DOPE     H14R     HAL2     0.900000E-01   1.00800           0
     20904 MEMB     169      DOPE     H14S     HAL2     0.900000E-01   1.00800           0
     20905 MEMB     169      DOPE     C215     CTL2    -0.180000       12.0110           0
     20906 MEMB     169      DOPE     H15R     HAL2     0.900000E-01   1.00800           0
     20907 MEMB     169      DOPE     H15S     HAL2     0.900000E-01   1.00800           0
     20908 MEMB     169      DOPE     C216     CTL2    -0.180000       12.0110           0
     20909 MEMB     169      DOPE     H16R     HAL2     0.900000E-01   1.00800           0
     20910 MEMB     169      DOPE     H16S     HAL2     0.900000E-01   1.00800           0
     20911 MEMB     169      DOPE     C217     CTL2    -0.180000       12.0110           0
     20912 MEMB     169      DOPE     H17R     HAL2     0.900000E-01   1.00800           0
     20913 MEMB     169      DOPE     H17S     HAL2     0.900000E-01   1.00800           0
     20914 MEMB     169      DOPE     C218     CTL3    -0.270000       12.0110           0
     20915 MEMB     169      DOPE     H18R     HAL3     0.900000E-01   1.00800           0
     20916 MEMB     169      DOPE     H18S     HAL3     0.900000E-01   1.00800           0
     20917 MEMB     169      DOPE     H18T     HAL3     0.900000E-01   1.00800           0
     20918 MEMB     169      DOPE     C33      CTL2    -0.180000       12.0110           0
     20919 MEMB     169      DOPE     H3X      HAL2     0.900000E-01   1.00800           0
     20920 MEMB     169      DOPE     H3Y      HAL2     0.900000E-01   1.00800           0
     20921 MEMB     169      DOPE     C34      CTL2    -0.180000       12.0110           0
     20922 MEMB     169      DOPE     H4X      HAL2     0.900000E-01   1.00800           0
     20923 MEMB     169      DOPE     H4Y      HAL2     0.900000E-01   1.00800           0
     20924 MEMB     169      DOPE     C35      CTL2    -0.180000       12.0110           0
     20925 MEMB     169      DOPE     H5X      HAL2     0.900000E-01   1.00800           0
     20926 MEMB     169      DOPE     H5Y      HAL2     0.900000E-01   1.00800           0
     20927 MEMB     169      DOPE     C36      CTL2    -0.180000       12.0110           0
     20928 MEMB     169      DOPE     H6X      HAL2     0.900000E-01   1.00800           0
     20929 MEMB     169      DOPE     H6Y      HAL2     0.900000E-01   1.00800           0
     20930 MEMB     169      DOPE     C37      CTL2    -0.180000       12.0110           0
     20931 MEMB     169      DOPE     H7X      HAL2     0.900000E-01   1.00800           0
     20932 MEMB     169      DOPE     H7Y      HAL2     0.900000E-01   1.00800           0
     20933 MEMB     169      DOPE     C38      CTL2    -0.180000       12.0110           0
     20934 MEMB     169      DOPE     H8X      HAL2     0.900000E-01   1.00800           0
     20935 MEMB     169      DOPE     H8Y      HAL2     0.900000E-01   1.00800           0
     20936 MEMB     169      DOPE     C39      CEL1    -0.150000       12.0110           0
     20937 MEMB     169      DOPE     H9X      HEL1     0.150000       1.00800           0
     20938 MEMB     169      DOPE     C310     CEL1    -0.150000       12.0110           0
     20939 MEMB     169      DOPE     H10X     HEL1     0.150000       1.00800           0
     20940 MEMB     169      DOPE     C311     CTL2    -0.180000       12.0110           0
     20941 MEMB     169      DOPE     H11X     HAL2     0.900000E-01   1.00800           0
     20942 MEMB     169      DOPE     H11Y     HAL2     0.900000E-01   1.00800           0
     20943 MEMB     169      DOPE     C312     CTL2    -0.180000       12.0110           0
     20944 MEMB     169      DOPE     H12X     HAL2     0.900000E-01   1.00800           0
     20945 MEMB     169      DOPE     H12Y     HAL2     0.900000E-01   1.00800           0
     20946 MEMB     169      DOPE     C313     CTL2    -0.180000       12.0110           0
     20947 MEMB     169      DOPE     H13X     HAL2     0.900000E-01   1.00800           0
     20948 MEMB     169      DOPE     H13Y     HAL2     0.900000E-01   1.00800           0
     20949 MEMB     169      DOPE     C314     CTL2    -0.180000       12.0110           0
     20950 MEMB     169      DOPE     H14X     HAL2     0.900000E-01   1.00800           0
     20951 MEMB     169      DOPE     H14Y     HAL2     0.900000E-01   1.00800           0
     20952 MEMB     169      DOPE     C315     CTL2    -0.180000       12.0110           0
     20953 MEMB     169      DOPE     H15X     HAL2     0.900000E-01   1.00800           0
     20954 MEMB     169      DOPE     H15Y     HAL2     0.900000E-01   1.00800           0
     20955 MEMB     169      DOPE     C316     CTL2    -0.180000       12.0110           0
     20956 MEMB     169      DOPE     H16X     HAL2     0.900000E-01   1.00800           0
     20957 MEMB     169      DOPE     H16Y     HAL2     0.900000E-01   1.00800           0
     20958 MEMB     169      DOPE     C317     CTL2    -0.180000       12.0110           0
     20959 MEMB     169      DOPE     H17X     HAL2     0.900000E-01   1.00800           0
     20960 MEMB     169      DOPE     H17Y     HAL2     0.900000E-01   1.00800           0
     20961 MEMB     169      DOPE     C318     CTL3    -0.270000       12.0110           0
     20962 MEMB     169      DOPE     H18X     HAL3     0.900000E-01   1.00800           0
     20963 MEMB     169      DOPE     H18Y     HAL3     0.900000E-01   1.00800           0
     20964 MEMB     169      DOPE     H18Z     HAL3     0.900000E-01   1.00800           0
     20965 MEMB     170      DOPC     N        NTL     -0.600000       14.0070           0
     20966 MEMB     170      DOPC     C12      CTL2    -0.100000       12.0110           0
     20967 MEMB     170      DOPC     H12A     HL       0.250000       1.00800           0
     20968 MEMB     170      DOPC     H12B     HL       0.250000       1.00800           0
     20969 MEMB     170      DOPC     C13      CTL5    -0.350000       12.0110           0
     20970 MEMB     170      DOPC     H13A     HL       0.250000       1.00800           0
     20971 MEMB     170      DOPC     H13B     HL       0.250000       1.00800           0
     20972 MEMB     170      DOPC     H13C     HL       0.250000       1.00800           0
     20973 MEMB     170      DOPC     C14      CTL5    -0.350000       12.0110           0
     20974 MEMB     170      DOPC     H14A     HL       0.250000       1.00800           0
     20975 MEMB     170      DOPC     H14B     HL       0.250000       1.00800           0
     20976 MEMB     170      DOPC     H14C     HL       0.250000       1.00800           0
     20977 MEMB     170      DOPC     C15      CTL5    -0.350000       12.0110           0
     20978 MEMB     170      DOPC     H15A     HL       0.250000       1.00800           0
     20979 MEMB     170      DOPC     H15B     HL       0.250000       1.00800           0
     20980 MEMB     170      DOPC     H15C     HL       0.250000       1.00800           0
     20981 MEMB     170      DOPC     C11      CTL2    -0.800000E-01   12.0110           0
     20982 MEMB     170      DOPC     H11A     HAL2     0.900000E-01   1.00800           0
     20983 MEMB     170      DOPC     H11B     HAL2     0.900000E-01   1.00800           0
     20984 MEMB     170      DOPC     P        PL        1.50000       30.9740           0
     20985 MEMB     170      DOPC     O13      O2L     -0.780000       15.9994           0
     20986 MEMB     170      DOPC     O14      O2L     -0.780000       15.9994           0
     20987 MEMB     170      DOPC     O12      OSLP    -0.570000       15.9994           0
     20988 MEMB     170      DOPC     O11      OSLP    -0.570000       15.9994           0
     20989 MEMB     170      DOPC     C1       CTL2    -0.800000E-01   12.0110           0
     20990 MEMB     170      DOPC     HA       HAL2     0.900000E-01   1.00800           0
     20991 MEMB     170      DOPC     HB       HAL2     0.900000E-01   1.00800           0
     20992 MEMB     170      DOPC     C2       CTL1     0.170000       12.0110           0
     20993 MEMB     170      DOPC     HS       HAL1     0.900000E-01   1.00800           0
     20994 MEMB     170      DOPC     O21      OSL     -0.490000       15.9994           0
     20995 MEMB     170      DOPC     C21      CL       0.900000       12.0110           0
     20996 MEMB     170      DOPC     O22      OBL     -0.630000       15.9994           0
     20997 MEMB     170      DOPC     C22      CTL2    -0.220000       12.0110           0
     20998 MEMB     170      DOPC     H2R      HAL2     0.900000E-01   1.00800           0
     20999 MEMB     170      DOPC     H2S      HAL2     0.900000E-01   1.00800           0
     21000 MEMB     170      DOPC     C3       CTL2     0.800000E-01   12.0110           0
     21001 MEMB     170      DOPC     HX       HAL2     0.900000E-01   1.00800           0
     21002 MEMB     170      DOPC     HY       HAL2     0.900000E-01   1.00800           0
     21003 MEMB     170      DOPC     O31      OSL     -0.490000       15.9994           0
     21004 MEMB     170      DOPC     C31      CL       0.900000       12.0110           0
     21005 MEMB     170      DOPC     O32      OBL     -0.630000       15.9994           0
     21006 MEMB     170      DOPC     C32      CTL2    -0.220000       12.0110           0
     21007 MEMB     170      DOPC     H2X      HAL2     0.900000E-01   1.00800           0
     21008 MEMB     170      DOPC     H2Y      HAL2     0.900000E-01   1.00800           0
     21009 MEMB     170      DOPC     C23      CTL2    -0.180000       12.0110           0
     21010 MEMB     170      DOPC     H3R      HAL2     0.900000E-01   1.00800           0
     21011 MEMB     170      DOPC     H3S      HAL2     0.900000E-01   1.00800           0
     21012 MEMB     170      DOPC     C24      CTL2    -0.180000       12.0110           0
     21013 MEMB     170      DOPC     H4R      HAL2     0.900000E-01   1.00800           0
     21014 MEMB     170      DOPC     H4S      HAL2     0.900000E-01   1.00800           0
     21015 MEMB     170      DOPC     C25      CTL2    -0.180000       12.0110           0
     21016 MEMB     170      DOPC     H5R      HAL2     0.900000E-01   1.00800           0
     21017 MEMB     170      DOPC     H5S      HAL2     0.900000E-01   1.00800           0
     21018 MEMB     170      DOPC     C26      CTL2    -0.180000       12.0110           0
     21019 MEMB     170      DOPC     H6R      HAL2     0.900000E-01   1.00800           0
     21020 MEMB     170      DOPC     H6S      HAL2     0.900000E-01   1.00800           0
     21021 MEMB     170      DOPC     C27      CTL2    -0.180000       12.0110           0
     21022 MEMB     170      DOPC     H7R      HAL2     0.900000E-01   1.00800           0
     21023 MEMB     170      DOPC     H7S      HAL2     0.900000E-01   1.00800           0
     21024 MEMB     170      DOPC     C28      CTL2    -0.180000       12.0110           0
     21025 MEMB     170      DOPC     H8R      HAL2     0.900000E-01   1.00800           0
     21026 MEMB     170      DOPC     H8S      HAL2     0.900000E-01   1.00800           0
     21027 MEMB     170      DOPC     C29      CEL1    -0.150000       12.0110           0
     21028 MEMB     170      DOPC     H9R      HEL1     0.150000       1.00800           0
     21029 MEMB     170      DOPC     C210     CEL1    -0.150000       12.0110           0
     21030 MEMB     170      DOPC     H10R     HEL1     0.150000       1.00800           0
     21031 MEMB     170      DOPC     C211     CTL2    -0.180000       12.0110           0
     21032 MEMB     170      DOPC     H11R     HAL2     0.900000E-01   1.00800           0
     21033 MEMB     170      DOPC     H11S     HAL2     0.900000E-01   1.00800           0
     21034 MEMB     170      DOPC     C212     CTL2    -0.180000       12.0110           0
     21035 MEMB     170      DOPC     H12R     HAL2     0.900000E-01   1.00800           0
     21036 MEMB     170      DOPC     H12S     HAL2     0.900000E-01   1.00800           0
     21037 MEMB     170      DOPC     C213     CTL2    -0.180000       12.0110           0
     21038 MEMB     170      DOPC     H13R     HAL2     0.900000E-01   1.00800           0
     21039 MEMB     170      DOPC     H13S     HAL2     0.900000E-01   1.00800           0
     21040 MEMB     170      DOPC     C214     CTL2    -0.180000       12.0110           0
     21041 MEMB     170      DOPC     H14R     HAL2     0.900000E-01   1.00800           0
     21042 MEMB     170      DOPC     H14S     HAL2     0.900000E-01   1.00800           0
     21043 MEMB     170      DOPC     C215     CTL2    -0.180000       12.0110           0
     21044 MEMB     170      DOPC     H15R     HAL2     0.900000E-01   1.00800           0
     21045 MEMB     170      DOPC     H15S     HAL2     0.900000E-01   1.00800           0
     21046 MEMB     170      DOPC     C216     CTL2    -0.180000       12.0110           0
     21047 MEMB     170      DOPC     H16R     HAL2     0.900000E-01   1.00800           0
     21048 MEMB     170      DOPC     H16S     HAL2     0.900000E-01   1.00800           0
     21049 MEMB     170      DOPC     C217     CTL2    -0.180000       12.0110           0
     21050 MEMB     170      DOPC     H17R     HAL2     0.900000E-01   1.00800           0
     21051 MEMB     170      DOPC     H17S     HAL2     0.900000E-01   1.00800           0
     21052 MEMB     170      DOPC     C218     CTL3    -0.270000       12.0110           0
     21053 MEMB     170      DOPC     H18R     HAL3     0.900000E-01   1.00800           0
     21054 MEMB     170      DOPC     H18S     HAL3     0.900000E-01   1.00800           0
     21055 MEMB     170      DOPC     H18T     HAL3     0.900000E-01   1.00800           0
     21056 MEMB     170      DOPC     C33      CTL2    -0.180000       12.0110           0
     21057 MEMB     170      DOPC     H3X      HAL2     0.900000E-01   1.00800           0
     21058 MEMB     170      DOPC     H3Y      HAL2     0.900000E-01   1.00800           0
     21059 MEMB     170      DOPC     C34      CTL2    -0.180000       12.0110           0
     21060 MEMB     170      DOPC     H4X      HAL2     0.900000E-01   1.00800           0
     21061 MEMB     170      DOPC     H4Y      HAL2     0.900000E-01   1.00800           0
     21062 MEMB     170      DOPC     C35      CTL2    -0.180000       12.0110           0
     21063 MEMB     170      DOPC     H5X      HAL2     0.900000E-01   1.00800           0
     21064 MEMB     170      DOPC     H5Y      HAL2     0.900000E-01   1.00800           0
     21065 MEMB     170      DOPC     C36      CTL2    -0.180000       12.0110           0
     21066 MEMB     170      DOPC     H6X      HAL2     0.900000E-01   1.00800           0
     21067 MEMB     170      DOPC     H6Y      HAL2     0.900000E-01   1.00800           0
     21068 MEMB     170      DOPC     C37      CTL2    -0.180000       12.0110           0
     21069 MEMB     170      DOPC     H7X      HAL2     0.900000E-01   1.00800           0
     21070 MEMB     170      DOPC     H7Y      HAL2     0.900000E-01   1.00800           0
     21071 MEMB     170      DOPC     C38      CTL2    -0.180000       12.0110           0
     21072 MEMB     170      DOPC     H8X      HAL2     0.900000E-01   1.00800           0
     21073 MEMB     170      DOPC     H8Y      HAL2     0.900000E-01   1.00800           0
     21074 MEMB     170      DOPC     C39      CEL1    -0.150000       12.0110           0
     21075 MEMB     170      DOPC     H9X      HEL1     0.150000       1.00800           0
     21076 MEMB     170      DOPC     C310     CEL1    -0.150000       12.0110           0
     21077 MEMB     170      DOPC     H10X     HEL1     0.150000       1.00800           0
     21078 MEMB     170      DOPC     C311     CTL2    -0.180000       12.0110           0
     21079 MEMB     170      DOPC     H11X     HAL2     0.900000E-01   1.00800           0
     21080 MEMB     170      DOPC     H11Y     HAL2     0.900000E-01   1.00800           0
     21081 MEMB     170      DOPC     C312     CTL2    -0.180000       12.0110           0
     21082 MEMB     170      DOPC     H12X     HAL2     0.900000E-01   1.00800           0
     21083 MEMB     170      DOPC     H12Y     HAL2     0.900000E-01   1.00800           0
     21084 MEMB     170      DOPC     C313     CTL2    -0.180000       12.0110           0
     21085 MEMB     170      DOPC     H13X     HAL2     0.900000E-01   1.00800           0
     21086 MEMB     170      DOPC     H13Y     HAL2     0.900000E-01   1.00800           0
     21087 MEMB     170      DOPC     C314     CTL2    -0.180000       12.0110           0
     21088 MEMB     170      DOPC     H14X     HAL2     0.900000E-01   1.00800           0
     21089 MEMB     170      DOPC     H14Y     HAL2     0.900000E-01   1.00800           0
     21090 MEMB     170      DOPC     C315     CTL2    -0.180000       12.0110           0
     21091 MEMB     170      DOPC     H15X     HAL2     0.900000E-01   1.00800           0
     21092 MEMB     170      DOPC     H15Y     HAL2     0.900000E-01   1.00800           0
     21093 MEMB     170      DOPC     C316     CTL2    -0.180000       12.0110           0
     21094 MEMB     170      DOPC     H16X     HAL2     0.900000E-01   1.00800           0
     21095 MEMB     170      DOPC     H16Y     HAL2     0.900000E-01   1.00800           0
     21096 MEMB     170      DOPC     C317     CTL2    -0.180000       12.0110           0
     21097 MEMB     170      DOPC     H17X     HAL2     0.900000E-01   1.00800           0
     21098 MEMB     170      DOPC     H17Y     HAL2     0.900000E-01   1.00800           0
     21099 MEMB     170      DOPC     C318     CTL3    -0.270000       12.0110           0
     21100 MEMB     170      DOPC     H18X     HAL3     0.900000E-01   1.00800           0
     21101 MEMB     170      DOPC     H18Y     HAL3     0.900000E-01   1.00800           0
     21102 MEMB     170      DOPC     H18Z     HAL3     0.900000E-01   1.00800           0
     21103 MEMB     171      DOPC     N        NTL     -0.600000       14.0070           0
     21104 MEMB     171      DOPC     C12      CTL2    -0.100000       12.0110           0
     21105 MEMB     171      DOPC     H12A     HL       0.250000       1.00800           0
     21106 MEMB     171      DOPC     H12B     HL       0.250000       1.00800           0
     21107 MEMB     171      DOPC     C13      CTL5    -0.350000       12.0110           0
     21108 MEMB     171      DOPC     H13A     HL       0.250000       1.00800           0
     21109 MEMB     171      DOPC     H13B     HL       0.250000       1.00800           0
     21110 MEMB     171      DOPC     H13C     HL       0.250000       1.00800           0
     21111 MEMB     171      DOPC     C14      CTL5    -0.350000       12.0110           0
     21112 MEMB     171      DOPC     H14A     HL       0.250000       1.00800           0
     21113 MEMB     171      DOPC     H14B     HL       0.250000       1.00800           0
     21114 MEMB     171      DOPC     H14C     HL       0.250000       1.00800           0
     21115 MEMB     171      DOPC     C15      CTL5    -0.350000       12.0110           0
     21116 MEMB     171      DOPC     H15A     HL       0.250000       1.00800           0
     21117 MEMB     171      DOPC     H15B     HL       0.250000       1.00800           0
     21118 MEMB     171      DOPC     H15C     HL       0.250000       1.00800           0
     21119 MEMB     171      DOPC     C11      CTL2    -0.800000E-01   12.0110           0
     21120 MEMB     171      DOPC     H11A     HAL2     0.900000E-01   1.00800           0
     21121 MEMB     171      DOPC     H11B     HAL2     0.900000E-01   1.00800           0
     21122 MEMB     171      DOPC     P        PL        1.50000       30.9740           0
     21123 MEMB     171      DOPC     O13      O2L     -0.780000       15.9994           0
     21124 MEMB     171      DOPC     O14      O2L     -0.780000       15.9994           0
     21125 MEMB     171      DOPC     O12      OSLP    -0.570000       15.9994           0
     21126 MEMB     171      DOPC     O11      OSLP    -0.570000       15.9994           0
     21127 MEMB     171      DOPC     C1       CTL2    -0.800000E-01   12.0110           0
     21128 MEMB     171      DOPC     HA       HAL2     0.900000E-01   1.00800           0
     21129 MEMB     171      DOPC     HB       HAL2     0.900000E-01   1.00800           0
     21130 MEMB     171      DOPC     C2       CTL1     0.170000       12.0110           0
     21131 MEMB     171      DOPC     HS       HAL1     0.900000E-01   1.00800           0
     21132 MEMB     171      DOPC     O21      OSL     -0.490000       15.9994           0
     21133 MEMB     171      DOPC     C21      CL       0.900000       12.0110           0
     21134 MEMB     171      DOPC     O22      OBL     -0.630000       15.9994           0
     21135 MEMB     171      DOPC     C22      CTL2    -0.220000       12.0110           0
     21136 MEMB     171      DOPC     H2R      HAL2     0.900000E-01   1.00800           0
     21137 MEMB     171      DOPC     H2S      HAL2     0.900000E-01   1.00800           0
     21138 MEMB     171      DOPC     C3       CTL2     0.800000E-01   12.0110           0
     21139 MEMB     171      DOPC     HX       HAL2     0.900000E-01   1.00800           0
     21140 MEMB     171      DOPC     HY       HAL2     0.900000E-01   1.00800           0
     21141 MEMB     171      DOPC     O31      OSL     -0.490000       15.9994           0
     21142 MEMB     171      DOPC     C31      CL       0.900000       12.0110           0
     21143 MEMB     171      DOPC     O32      OBL     -0.630000       15.9994           0
     21144 MEMB     171      DOPC     C32      CTL2    -0.220000       12.0110           0
     21145 MEMB     171      DOPC     H2X      HAL2     0.900000E-01   1.00800           0
     21146 MEMB     171      DOPC     H2Y      HAL2     0.900000E-01   1.00800           0
     21147 MEMB     171      DOPC     C23      CTL2    -0.180000       12.0110           0
     21148 MEMB     171      DOPC     H3R      HAL2     0.900000E-01   1.00800           0
     21149 MEMB     171      DOPC     H3S      HAL2     0.900000E-01   1.00800           0
     21150 MEMB     171      DOPC     C24      CTL2    -0.180000       12.0110           0
     21151 MEMB     171      DOPC     H4R      HAL2     0.900000E-01   1.00800           0
     21152 MEMB     171      DOPC     H4S      HAL2     0.900000E-01   1.00800           0
     21153 MEMB     171      DOPC     C25      CTL2    -0.180000       12.0110           0
     21154 MEMB     171      DOPC     H5R      HAL2     0.900000E-01   1.00800           0
     21155 MEMB     171      DOPC     H5S      HAL2     0.900000E-01   1.00800           0
     21156 MEMB     171      DOPC     C26      CTL2    -0.180000       12.0110           0
     21157 MEMB     171      DOPC     H6R      HAL2     0.900000E-01   1.00800           0
     21158 MEMB     171      DOPC     H6S      HAL2     0.900000E-01   1.00800           0
     21159 MEMB     171      DOPC     C27      CTL2    -0.180000       12.0110           0
     21160 MEMB     171      DOPC     H7R      HAL2     0.900000E-01   1.00800           0
     21161 MEMB     171      DOPC     H7S      HAL2     0.900000E-01   1.00800           0
     21162 MEMB     171      DOPC     C28      CTL2    -0.180000       12.0110           0
     21163 MEMB     171      DOPC     H8R      HAL2     0.900000E-01   1.00800           0
     21164 MEMB     171      DOPC     H8S      HAL2     0.900000E-01   1.00800           0
     21165 MEMB     171      DOPC     C29      CEL1    -0.150000       12.0110           0
     21166 MEMB     171      DOPC     H9R      HEL1     0.150000       1.00800           0
     21167 MEMB     171      DOPC     C210     CEL1    -0.150000       12.0110           0
     21168 MEMB     171      DOPC     H10R     HEL1     0.150000       1.00800           0
     21169 MEMB     171      DOPC     C211     CTL2    -0.180000       12.0110           0
     21170 MEMB     171      DOPC     H11R     HAL2     0.900000E-01   1.00800           0
     21171 MEMB     171      DOPC     H11S     HAL2     0.900000E-01   1.00800           0
     21172 MEMB     171      DOPC     C212     CTL2    -0.180000       12.0110           0
     21173 MEMB     171      DOPC     H12R     HAL2     0.900000E-01   1.00800           0
     21174 MEMB     171      DOPC     H12S     HAL2     0.900000E-01   1.00800           0
     21175 MEMB     171      DOPC     C213     CTL2    -0.180000       12.0110           0
     21176 MEMB     171      DOPC     H13R     HAL2     0.900000E-01   1.00800           0
     21177 MEMB     171      DOPC     H13S     HAL2     0.900000E-01   1.00800           0
     21178 MEMB     171      DOPC     C214     CTL2    -0.180000       12.0110           0
     21179 MEMB     171      DOPC     H14R     HAL2     0.900000E-01   1.00800           0
     21180 MEMB     171      DOPC     H14S     HAL2     0.900000E-01   1.00800           0
     21181 MEMB     171      DOPC     C215     CTL2    -0.180000       12.0110           0
     21182 MEMB     171      DOPC     H15R     HAL2     0.900000E-01   1.00800           0
     21183 MEMB     171      DOPC     H15S     HAL2     0.900000E-01   1.00800           0
     21184 MEMB     171      DOPC     C216     CTL2    -0.180000       12.0110           0
     21185 MEMB     171      DOPC     H16R     HAL2     0.900000E-01   1.00800           0
     21186 MEMB     171      DOPC     H16S     HAL2     0.900000E-01   1.00800           0
     21187 MEMB     171      DOPC     C217     CTL2    -0.180000       12.0110           0
     21188 MEMB     171      DOPC     H17R     HAL2     0.900000E-01   1.00800           0
     21189 MEMB     171      DOPC     H17S     HAL2     0.900000E-01   1.00800           0
     21190 MEMB     171      DOPC     C218     CTL3    -0.270000       12.0110           0
     21191 MEMB     171      DOPC     H18R     HAL3     0.900000E-01   1.00800           0
     21192 MEMB     171      DOPC     H18S     HAL3     0.900000E-01   1.00800           0
     21193 MEMB     171      DOPC     H18T     HAL3     0.900000E-01   1.00800           0
     21194 MEMB     171      DOPC     C33      CTL2    -0.180000       12.0110           0
     21195 MEMB     171      DOPC     H3X      HAL2     0.900000E-01   1.00800           0
     21196 MEMB     171      DOPC     H3Y      HAL2     0.900000E-01   1.00800           0
     21197 MEMB     171      DOPC     C34      CTL2    -0.180000       12.0110           0
     21198 MEMB     171      DOPC     H4X      HAL2     0.900000E-01   1.00800           0
     21199 MEMB     171      DOPC     H4Y      HAL2     0.900000E-01   1.00800           0
     21200 MEMB     171      DOPC     C35      CTL2    -0.180000       12.0110           0
     21201 MEMB     171      DOPC     H5X      HAL2     0.900000E-01   1.00800           0
     21202 MEMB     171      DOPC     H5Y      HAL2     0.900000E-01   1.00800           0
     21203 MEMB     171      DOPC     C36      CTL2    -0.180000       12.0110           0
     21204 MEMB     171      DOPC     H6X      HAL2     0.900000E-01   1.00800           0
     21205 MEMB     171      DOPC     H6Y      HAL2     0.900000E-01   1.00800           0
     21206 MEMB     171      DOPC     C37      CTL2    -0.180000       12.0110           0
     21207 MEMB     171      DOPC     H7X      HAL2     0.900000E-01   1.00800           0
     21208 MEMB     171      DOPC     H7Y      HAL2     0.900000E-01   1.00800           0
     21209 MEMB     171      DOPC     C38      CTL2    -0.180000       12.0110           0
     21210 MEMB     171      DOPC     H8X      HAL2     0.900000E-01   1.00800           0
     21211 MEMB     171      DOPC     H8Y      HAL2     0.900000E-01   1.00800           0
     21212 MEMB     171      DOPC     C39      CEL1    -0.150000       12.0110           0
     21213 MEMB     171      DOPC     H9X      HEL1     0.150000       1.00800           0
     21214 MEMB     171      DOPC     C310     CEL1    -0.150000       12.0110           0
     21215 MEMB     171      DOPC     H10X     HEL1     0.150000       1.00800           0
     21216 MEMB     171      DOPC     C311     CTL2    -0.180000       12.0110           0
     21217 MEMB     171      DOPC     H11X     HAL2     0.900000E-01   1.00800           0
     21218 MEMB     171      DOPC     H11Y     HAL2     0.900000E-01   1.00800           0
     21219 MEMB     171      DOPC     C312     CTL2    -0.180000       12.0110           0
     21220 MEMB     171      DOPC     H12X     HAL2     0.900000E-01   1.00800           0
     21221 MEMB     171      DOPC     H12Y     HAL2     0.900000E-01   1.00800           0
     21222 MEMB     171      DOPC     C313     CTL2    -0.180000       12.0110           0
     21223 MEMB     171      DOPC     H13X     HAL2     0.900000E-01   1.00800           0
     21224 MEMB     171      DOPC     H13Y     HAL2     0.900000E-01   1.00800           0
     21225 MEMB     171      DOPC     C314     CTL2    -0.180000       12.0110           0
     21226 MEMB     171      DOPC     H14X     HAL2     0.900000E-01   1.00800           0
     21227 MEMB     171      DOPC     H14Y     HAL2     0.900000E-01   1.00800           0
     21228 MEMB     171      DOPC     C315     CTL2    -0.180000       12.0110           0
     21229 MEMB     171      DOPC     H15X     HAL2     0.900000E-01   1.00800           0
     21230 MEMB     171      DOPC     H15Y     HAL2     0.900000E-01   1.00800           0
     21231 MEMB     171      DOPC     C316     CTL2    -0.180000       12.0110           0
     21232 MEMB     171      DOPC     H16X     HAL2     0.900000E-01   1.00800           0
     21233 MEMB     171      DOPC     H16Y     HAL2     0.900000E-01   1.00800           0
     21234 MEMB     171      DOPC     C317     CTL2    -0.180000       12.0110           0
     21235 MEMB     171      DOPC     H17X     HAL2     0.900000E-01   1.00800           0
     21236 MEMB     171      DOPC     H17Y     HAL2     0.900000E-01   1.00800           0
     21237 MEMB     171      DOPC     C318     CTL3    -0.270000       12.0110           0
     21238 MEMB     171      DOPC     H18X     HAL3     0.900000E-01   1.00800           0
     21239 MEMB     171      DOPC     H18Y     HAL3     0.900000E-01   1.00800           0
     21240 MEMB     171      DOPC     H18Z     HAL3     0.900000E-01   1.00800           0
     21241 MEMB     172      DOPE     N        NH3L    -0.300000       14.0070           0
     21242 MEMB     172      DOPE     HN1      HCL      0.330000       1.00800           0
     21243 MEMB     172      DOPE     HN2      HCL      0.330000       1.00800           0
     21244 MEMB     172      DOPE     HN3      HCL      0.330000       1.00800           0
     21245 MEMB     172      DOPE     C12      CTL2     0.130000       12.0110           0
     21246 MEMB     172      DOPE     H12A     HAL2     0.900000E-01   1.00800           0
     21247 MEMB     172      DOPE     H12B     HAL2     0.900000E-01   1.00800           0
     21248 MEMB     172      DOPE     C11      CTL2    -0.800000E-01   12.0110           0
     21249 MEMB     172      DOPE     H11A     HAL2     0.900000E-01   1.00800           0
     21250 MEMB     172      DOPE     H11B     HAL2     0.900000E-01   1.00800           0
     21251 MEMB     172      DOPE     P        PL        1.50000       30.9740           0
     21252 MEMB     172      DOPE     O13      O2L     -0.780000       15.9994           0
     21253 MEMB     172      DOPE     O14      O2L     -0.780000       15.9994           0
     21254 MEMB     172      DOPE     O11      OSLP    -0.570000       15.9994           0
     21255 MEMB     172      DOPE     O12      OSLP    -0.570000       15.9994           0
     21256 MEMB     172      DOPE     C1       CTL2    -0.800000E-01   12.0110           0
     21257 MEMB     172      DOPE     HA       HAL2     0.900000E-01   1.00800           0
     21258 MEMB     172      DOPE     HB       HAL2     0.900000E-01   1.00800           0
     21259 MEMB     172      DOPE     C2       CTL1     0.170000       12.0110           0
     21260 MEMB     172      DOPE     HS       HAL1     0.900000E-01   1.00800           0
     21261 MEMB     172      DOPE     O21      OSL     -0.490000       15.9994           0
     21262 MEMB     172      DOPE     C21      CL       0.900000       12.0110           0
     21263 MEMB     172      DOPE     O22      OBL     -0.630000       15.9994           0
     21264 MEMB     172      DOPE     C22      CTL2    -0.220000       12.0110           0
     21265 MEMB     172      DOPE     H2R      HAL2     0.900000E-01   1.00800           0
     21266 MEMB     172      DOPE     H2S      HAL2     0.900000E-01   1.00800           0
     21267 MEMB     172      DOPE     C3       CTL2     0.800000E-01   12.0110           0
     21268 MEMB     172      DOPE     HX       HAL2     0.900000E-01   1.00800           0
     21269 MEMB     172      DOPE     HY       HAL2     0.900000E-01   1.00800           0
     21270 MEMB     172      DOPE     O31      OSL     -0.490000       15.9994           0
     21271 MEMB     172      DOPE     C31      CL       0.900000       12.0110           0
     21272 MEMB     172      DOPE     O32      OBL     -0.630000       15.9994           0
     21273 MEMB     172      DOPE     C32      CTL2    -0.220000       12.0110           0
     21274 MEMB     172      DOPE     H2X      HAL2     0.900000E-01   1.00800           0
     21275 MEMB     172      DOPE     H2Y      HAL2     0.900000E-01   1.00800           0
     21276 MEMB     172      DOPE     C23      CTL2    -0.180000       12.0110           0
     21277 MEMB     172      DOPE     H3R      HAL2     0.900000E-01   1.00800           0
     21278 MEMB     172      DOPE     H3S      HAL2     0.900000E-01   1.00800           0
     21279 MEMB     172      DOPE     C24      CTL2    -0.180000       12.0110           0
     21280 MEMB     172      DOPE     H4R      HAL2     0.900000E-01   1.00800           0
     21281 MEMB     172      DOPE     H4S      HAL2     0.900000E-01   1.00800           0
     21282 MEMB     172      DOPE     C25      CTL2    -0.180000       12.0110           0
     21283 MEMB     172      DOPE     H5R      HAL2     0.900000E-01   1.00800           0
     21284 MEMB     172      DOPE     H5S      HAL2     0.900000E-01   1.00800           0
     21285 MEMB     172      DOPE     C26      CTL2    -0.180000       12.0110           0
     21286 MEMB     172      DOPE     H6R      HAL2     0.900000E-01   1.00800           0
     21287 MEMB     172      DOPE     H6S      HAL2     0.900000E-01   1.00800           0
     21288 MEMB     172      DOPE     C27      CTL2    -0.180000       12.0110           0
     21289 MEMB     172      DOPE     H7R      HAL2     0.900000E-01   1.00800           0
     21290 MEMB     172      DOPE     H7S      HAL2     0.900000E-01   1.00800           0
     21291 MEMB     172      DOPE     C28      CTL2    -0.180000       12.0110           0
     21292 MEMB     172      DOPE     H8R      HAL2     0.900000E-01   1.00800           0
     21293 MEMB     172      DOPE     H8S      HAL2     0.900000E-01   1.00800           0
     21294 MEMB     172      DOPE     C29      CEL1    -0.150000       12.0110           0
     21295 MEMB     172      DOPE     H9R      HEL1     0.150000       1.00800           0
     21296 MEMB     172      DOPE     C210     CEL1    -0.150000       12.0110           0
     21297 MEMB     172      DOPE     H10R     HEL1     0.150000       1.00800           0
     21298 MEMB     172      DOPE     C211     CTL2    -0.180000       12.0110           0
     21299 MEMB     172      DOPE     H11R     HAL2     0.900000E-01   1.00800           0
     21300 MEMB     172      DOPE     H11S     HAL2     0.900000E-01   1.00800           0
     21301 MEMB     172      DOPE     C212     CTL2    -0.180000       12.0110           0
     21302 MEMB     172      DOPE     H12R     HAL2     0.900000E-01   1.00800           0
     21303 MEMB     172      DOPE     H12S     HAL2     0.900000E-01   1.00800           0
     21304 MEMB     172      DOPE     C213     CTL2    -0.180000       12.0110           0
     21305 MEMB     172      DOPE     H13R     HAL2     0.900000E-01   1.00800           0
     21306 MEMB     172      DOPE     H13S     HAL2     0.900000E-01   1.00800           0
     21307 MEMB     172      DOPE     C214     CTL2    -0.180000       12.0110           0
     21308 MEMB     172      DOPE     H14R     HAL2     0.900000E-01   1.00800           0
     21309 MEMB     172      DOPE     H14S     HAL2     0.900000E-01   1.00800           0
     21310 MEMB     172      DOPE     C215     CTL2    -0.180000       12.0110           0
     21311 MEMB     172      DOPE     H15R     HAL2     0.900000E-01   1.00800           0
     21312 MEMB     172      DOPE     H15S     HAL2     0.900000E-01   1.00800           0
     21313 MEMB     172      DOPE     C216     CTL2    -0.180000       12.0110           0
     21314 MEMB     172      DOPE     H16R     HAL2     0.900000E-01   1.00800           0
     21315 MEMB     172      DOPE     H16S     HAL2     0.900000E-01   1.00800           0
     21316 MEMB     172      DOPE     C217     CTL2    -0.180000       12.0110           0
     21317 MEMB     172      DOPE     H17R     HAL2     0.900000E-01   1.00800           0
     21318 MEMB     172      DOPE     H17S     HAL2     0.900000E-01   1.00800           0
     21319 MEMB     172      DOPE     C218     CTL3    -0.270000       12.0110           0
     21320 MEMB     172      DOPE     H18R     HAL3     0.900000E-01   1.00800           0
     21321 MEMB     172      DOPE     H18S     HAL3     0.900000E-01   1.00800           0
     21322 MEMB     172      DOPE     H18T     HAL3     0.900000E-01   1.00800           0
     21323 MEMB     172      DOPE     C33      CTL2    -0.180000       12.0110           0
     21324 MEMB     172      DOPE     H3X      HAL2     0.900000E-01   1.00800           0
     21325 MEMB     172      DOPE     H3Y      HAL2     0.900000E-01   1.00800           0
     21326 MEMB     172      DOPE     C34      CTL2    -0.180000       12.0110           0
     21327 MEMB     172      DOPE     H4X      HAL2     0.900000E-01   1.00800           0
     21328 MEMB     172      DOPE     H4Y      HAL2     0.900000E-01   1.00800           0
     21329 MEMB     172      DOPE     C35      CTL2    -0.180000       12.0110           0
     21330 MEMB     172      DOPE     H5X      HAL2     0.900000E-01   1.00800           0
     21331 MEMB     172      DOPE     H5Y      HAL2     0.900000E-01   1.00800           0
     21332 MEMB     172      DOPE     C36      CTL2    -0.180000       12.0110           0
     21333 MEMB     172      DOPE     H6X      HAL2     0.900000E-01   1.00800           0
     21334 MEMB     172      DOPE     H6Y      HAL2     0.900000E-01   1.00800           0
     21335 MEMB     172      DOPE     C37      CTL2    -0.180000       12.0110           0
     21336 MEMB     172      DOPE     H7X      HAL2     0.900000E-01   1.00800           0
     21337 MEMB     172      DOPE     H7Y      HAL2     0.900000E-01   1.00800           0
     21338 MEMB     172      DOPE     C38      CTL2    -0.180000       12.0110           0
     21339 MEMB     172      DOPE     H8X      HAL2     0.900000E-01   1.00800           0
     21340 MEMB     172      DOPE     H8Y      HAL2     0.900000E-01   1.00800           0
     21341 MEMB     172      DOPE     C39      CEL1    -0.150000       12.0110           0
     21342 MEMB     172      DOPE     H9X      HEL1     0.150000       1.00800           0
     21343 MEMB     172      DOPE     C310     CEL1    -0.150000       12.0110           0
     21344 MEMB     172      DOPE     H10X     HEL1     0.150000       1.00800           0
     21345 MEMB     172      DOPE     C311     CTL2    -0.180000       12.0110           0
     21346 MEMB     172      DOPE     H11X     HAL2     0.900000E-01   1.00800           0
     21347 MEMB     172      DOPE     H11Y     HAL2     0.900000E-01   1.00800           0
     21348 MEMB     172      DOPE     C312     CTL2    -0.180000       12.0110           0
     21349 MEMB     172      DOPE     H12X     HAL2     0.900000E-01   1.00800           0
     21350 MEMB     172      DOPE     H12Y     HAL2     0.900000E-01   1.00800           0
     21351 MEMB     172      DOPE     C313     CTL2    -0.180000       12.0110           0
     21352 MEMB     172      DOPE     H13X     HAL2     0.900000E-01   1.00800           0
     21353 MEMB     172      DOPE     H13Y     HAL2     0.900000E-01   1.00800           0
     21354 MEMB     172      DOPE     C314     CTL2    -0.180000       12.0110           0
     21355 MEMB     172      DOPE     H14X     HAL2     0.900000E-01   1.00800           0
     21356 MEMB     172      DOPE     H14Y     HAL2     0.900000E-01   1.00800           0
     21357 MEMB     172      DOPE     C315     CTL2    -0.180000       12.0110           0
     21358 MEMB     172      DOPE     H15X     HAL2     0.900000E-01   1.00800           0
     21359 MEMB     172      DOPE     H15Y     HAL2     0.900000E-01   1.00800           0
     21360 MEMB     172      DOPE     C316     CTL2    -0.180000       12.0110           0
     21361 MEMB     172      DOPE     H16X     HAL2     0.900000E-01   1.00800           0
     21362 MEMB     172      DOPE     H16Y     HAL2     0.900000E-01   1.00800           0
     21363 MEMB     172      DOPE     C317     CTL2    -0.180000       12.0110           0
     21364 MEMB     172      DOPE     H17X     HAL2     0.900000E-01   1.00800           0
     21365 MEMB     172      DOPE     H17Y     HAL2     0.900000E-01   1.00800           0
     21366 MEMB     172      DOPE     C318     CTL3    -0.270000       12.0110           0
     21367 MEMB     172      DOPE     H18X     HAL3     0.900000E-01   1.00800           0
     21368 MEMB     172      DOPE     H18Y     HAL3     0.900000E-01   1.00800           0
     21369 MEMB     172      DOPE     H18Z     HAL3     0.900000E-01   1.00800           0
     21370 MEMB     173      23SM     N        NTL     -0.600000       14.0070           0
     21371 MEMB     173      23SM     C15      CTL5    -0.350000       12.0110           0
     21372 MEMB     173      23SM     H15A     HL       0.250000       1.00800           0
     21373 MEMB     173      23SM     H15B     HL       0.250000       1.00800           0
     21374 MEMB     173      23SM     H15C     HL       0.250000       1.00800           0
     21375 MEMB     173      23SM     C14      CTL5    -0.350000       12.0110           0
     21376 MEMB     173      23SM     H14A     HL       0.250000       1.00800           0
     21377 MEMB     173      23SM     H14B     HL       0.250000       1.00800           0
     21378 MEMB     173      23SM     H14C     HL       0.250000       1.00800           0
     21379 MEMB     173      23SM     C13      CTL5    -0.350000       12.0110           0
     21380 MEMB     173      23SM     H13A     HL       0.250000       1.00800           0
     21381 MEMB     173      23SM     H13B     HL       0.250000       1.00800           0
     21382 MEMB     173      23SM     H13C     HL       0.250000       1.00800           0
     21383 MEMB     173      23SM     C12      CTL2    -0.100000       12.0110           0
     21384 MEMB     173      23SM     H12A     HL       0.250000       1.00800           0
     21385 MEMB     173      23SM     H12B     HL       0.250000       1.00800           0
     21386 MEMB     173      23SM     C11      CTL2    -0.800000E-01   12.0110           0
     21387 MEMB     173      23SM     H11A     HAL2     0.900000E-01   1.00800           0
     21388 MEMB     173      23SM     H11B     HAL2     0.900000E-01   1.00800           0
     21389 MEMB     173      23SM     P        PL        1.50000       30.9740           0
     21390 MEMB     173      23SM     O13      O2L     -0.780000       15.9994           0
     21391 MEMB     173      23SM     O14      O2L     -0.780000       15.9994           0
     21392 MEMB     173      23SM     O11      OSLP    -0.570000       15.9994           0
     21393 MEMB     173      23SM     O12      OSLP    -0.570000       15.9994           0
     21394 MEMB     173      23SM     C1S      CTL2    -0.800000E-01   12.0110           0
     21395 MEMB     173      23SM     H1S      HAL2     0.900000E-01   1.00800           0
     21396 MEMB     173      23SM     H1T      HAL2     0.900000E-01   1.00800           0
     21397 MEMB     173      23SM     NF       NHL     -0.700000       14.0070           0
     21398 MEMB     173      23SM     HNF      H        0.350000       1.00800           0
     21399 MEMB     173      23SM     C2S      CTL1     0.300000       12.0110           0
     21400 MEMB     173      23SM     H2S      HAL1     0.500000E-01   1.00800           0
     21401 MEMB     173      23SM     C3S      CTO1     0.500000       12.0110           0
     21402 MEMB     173      23SM     H3S      HAL1    -0.110000       1.00800           0
     21403 MEMB     173      23SM     O3       OHL     -0.690000       15.9994           0
     21404 MEMB     173      23SM     HO3      HOL      0.300000       1.00800           0
     21405 MEMB     173      23SM     C4S      CEL3    -0.150000       12.0110           0
     21406 MEMB     173      23SM     H4S      HEL1     0.150000       1.00800           0
     21407 MEMB     173      23SM     C5S      CEL3    -0.150000       12.0110           0
     21408 MEMB     173      23SM     H5S      HEL1     0.150000       1.00800           0
     21409 MEMB     173      23SM     C6S      CTL2    -0.180000       12.0110           0
     21410 MEMB     173      23SM     H6S      HAL2     0.900000E-01   1.00800           0
     21411 MEMB     173      23SM     H6T      HAL2     0.900000E-01   1.00800           0
     21412 MEMB     173      23SM     C7S      CTL2    -0.180000       12.0110           0
     21413 MEMB     173      23SM     H7S      HAL2     0.900000E-01   1.00800           0
     21414 MEMB     173      23SM     H7T      HAL2     0.900000E-01   1.00800           0
     21415 MEMB     173      23SM     C8S      CTL2    -0.180000       12.0110           0
     21416 MEMB     173      23SM     H8S      HAL2     0.900000E-01   1.00800           0
     21417 MEMB     173      23SM     H8T      HAL2     0.900000E-01   1.00800           0
     21418 MEMB     173      23SM     C9S      CTL2    -0.180000       12.0110           0
     21419 MEMB     173      23SM     H9S      HAL2     0.900000E-01   1.00800           0
     21420 MEMB     173      23SM     H9T      HAL2     0.900000E-01   1.00800           0
     21421 MEMB     173      23SM     C10S     CTL2    -0.180000       12.0110           0
     21422 MEMB     173      23SM     H10S     HAL2     0.900000E-01   1.00800           0
     21423 MEMB     173      23SM     H10T     HAL2     0.900000E-01   1.00800           0
     21424 MEMB     173      23SM     C11S     CTL2    -0.180000       12.0110           0
     21425 MEMB     173      23SM     H11S     HAL2     0.900000E-01   1.00800           0
     21426 MEMB     173      23SM     H11T     HAL2     0.900000E-01   1.00800           0
     21427 MEMB     173      23SM     C12S     CTL2    -0.180000       12.0110           0
     21428 MEMB     173      23SM     H12S     HAL2     0.900000E-01   1.00800           0
     21429 MEMB     173      23SM     H12T     HAL2     0.900000E-01   1.00800           0
     21430 MEMB     173      23SM     C13S     CTL2    -0.180000       12.0110           0
     21431 MEMB     173      23SM     H13S     HAL2     0.900000E-01   1.00800           0
     21432 MEMB     173      23SM     H13T     HAL2     0.900000E-01   1.00800           0
     21433 MEMB     173      23SM     C14S     CTL2    -0.180000       12.0110           0
     21434 MEMB     173      23SM     H14S     HAL2     0.900000E-01   1.00800           0
     21435 MEMB     173      23SM     H14T     HAL2     0.900000E-01   1.00800           0
     21436 MEMB     173      23SM     C15S     CTL2    -0.180000       12.0110           0
     21437 MEMB     173      23SM     H15S     HAL2     0.900000E-01   1.00800           0
     21438 MEMB     173      23SM     H15T     HAL2     0.900000E-01   1.00800           0
     21439 MEMB     173      23SM     C16S     CTL2    -0.180000       12.0110           0
     21440 MEMB     173      23SM     H16S     HAL2     0.900000E-01   1.00800           0
     21441 MEMB     173      23SM     H16T     HAL2     0.900000E-01   1.00800           0
     21442 MEMB     173      23SM     C17S     CTL2    -0.180000       12.0110           0
     21443 MEMB     173      23SM     H17S     HAL2     0.900000E-01   1.00800           0
     21444 MEMB     173      23SM     H17T     HAL2     0.900000E-01   1.00800           0
     21445 MEMB     173      23SM     C18S     CTL3    -0.270000       12.0110           0
     21446 MEMB     173      23SM     H18S     HAL3     0.900000E-01   1.00800           0
     21447 MEMB     173      23SM     H18T     HAL3     0.900000E-01   1.00800           0
     21448 MEMB     173      23SM     H18U     HAL3     0.900000E-01   1.00800           0
     21449 MEMB     173      23SM     C1F      C        0.550000       12.0110           0
     21450 MEMB     173      23SM     OF       O       -0.600000       15.9994           0
     21451 MEMB     173      23SM     C2F      CTL2    -0.700000E-01   12.0110           0
     21452 MEMB     173      23SM     H2F      HAL2     0.600000E-01   1.00800           0
     21453 MEMB     173      23SM     H2G      HAL2     0.600000E-01   1.00800           0
     21454 MEMB     173      23SM     C3F      CTL2    -0.180000       12.0110           0
     21455 MEMB     173      23SM     H3F      HAL2     0.900000E-01   1.00800           0
     21456 MEMB     173      23SM     H3G      HAL2     0.900000E-01   1.00800           0
     21457 MEMB     173      23SM     C4F      CTL2    -0.180000       12.0110           0
     21458 MEMB     173      23SM     H4F      HAL2     0.900000E-01   1.00800           0
     21459 MEMB     173      23SM     H4G      HAL2     0.900000E-01   1.00800           0
     21460 MEMB     173      23SM     C5F      CTL2    -0.180000       12.0110           0
     21461 MEMB     173      23SM     H5F      HAL2     0.900000E-01   1.00800           0
     21462 MEMB     173      23SM     H5G      HAL2     0.900000E-01   1.00800           0
     21463 MEMB     173      23SM     C6F      CTL2    -0.180000       12.0110           0
     21464 MEMB     173      23SM     H6F      HAL2     0.900000E-01   1.00800           0
     21465 MEMB     173      23SM     H6G      HAL2     0.900000E-01   1.00800           0
     21466 MEMB     173      23SM     C7F      CTL2    -0.180000       12.0110           0
     21467 MEMB     173      23SM     H7F      HAL2     0.900000E-01   1.00800           0
     21468 MEMB     173      23SM     H7G      HAL2     0.900000E-01   1.00800           0
     21469 MEMB     173      23SM     C8F      CTL2    -0.180000       12.0110           0
     21470 MEMB     173      23SM     H8F      HAL2     0.900000E-01   1.00800           0
     21471 MEMB     173      23SM     H8G      HAL2     0.900000E-01   1.00800           0
     21472 MEMB     173      23SM     C9F      CTL2    -0.180000       12.0110           0
     21473 MEMB     173      23SM     H9F      HAL2     0.900000E-01   1.00800           0
     21474 MEMB     173      23SM     H9G      HAL2     0.900000E-01   1.00800           0
     21475 MEMB     173      23SM     C10F     CTL2    -0.180000       12.0110           0
     21476 MEMB     173      23SM     H10F     HAL2     0.900000E-01   1.00800           0
     21477 MEMB     173      23SM     H10G     HAL2     0.900000E-01   1.00800           0
     21478 MEMB     173      23SM     C11F     CTL2    -0.180000       12.0110           0
     21479 MEMB     173      23SM     H11F     HAL2     0.900000E-01   1.00800           0
     21480 MEMB     173      23SM     H11G     HAL2     0.900000E-01   1.00800           0
     21481 MEMB     173      23SM     C12F     CTL2    -0.180000       12.0110           0
     21482 MEMB     173      23SM     H12F     HAL2     0.900000E-01   1.00800           0
     21483 MEMB     173      23SM     H12G     HAL2     0.900000E-01   1.00800           0
     21484 MEMB     173      23SM     C13F     CTL2    -0.180000       12.0110           0
     21485 MEMB     173      23SM     H13F     HAL2     0.900000E-01   1.00800           0
     21486 MEMB     173      23SM     H13G     HAL2     0.900000E-01   1.00800           0
     21487 MEMB     173      23SM     C14F     CTL2    -0.180000       12.0110           0
     21488 MEMB     173      23SM     H14F     HAL2     0.900000E-01   1.00800           0
     21489 MEMB     173      23SM     H14G     HAL2     0.900000E-01   1.00800           0
     21490 MEMB     173      23SM     C15F     CTL2    -0.180000       12.0110           0
     21491 MEMB     173      23SM     H15F     HAL2     0.900000E-01   1.00800           0
     21492 MEMB     173      23SM     H15G     HAL2     0.900000E-01   1.00800           0
     21493 MEMB     173      23SM     C16F     CTL2    -0.180000       12.0110           0
     21494 MEMB     173      23SM     H16F     HAL2     0.900000E-01   1.00800           0
     21495 MEMB     173      23SM     H16G     HAL2     0.900000E-01   1.00800           0
     21496 MEMB     173      23SM     C17F     CTL2    -0.180000       12.0110           0
     21497 MEMB     173      23SM     H17F     HAL2     0.900000E-01   1.00800           0
     21498 MEMB     173      23SM     H17G     HAL2     0.900000E-01   1.00800           0
     21499 MEMB     173      23SM     C18F     CTL2    -0.180000       12.0110           0
     21500 MEMB     173      23SM     H18F     HAL2     0.900000E-01   1.00800           0
     21501 MEMB     173      23SM     H18G     HAL2     0.900000E-01   1.00800           0
     21502 MEMB     173      23SM     C19F     CTL2    -0.180000       12.0110           0
     21503 MEMB     173      23SM     H19F     HAL2     0.900000E-01   1.00800           0
     21504 MEMB     173      23SM     H19G     HAL2     0.900000E-01   1.00800           0
     21505 MEMB     173      23SM     C20F     CTL2    -0.180000       12.0110           0
     21506 MEMB     173      23SM     H20F     HAL2     0.900000E-01   1.00800           0
     21507 MEMB     173      23SM     H20G     HAL2     0.900000E-01   1.00800           0
     21508 MEMB     173      23SM     C21F     CTL2    -0.180000       12.0110           0
     21509 MEMB     173      23SM     H21F     HAL2     0.900000E-01   1.00800           0
     21510 MEMB     173      23SM     H21G     HAL2     0.900000E-01   1.00800           0
     21511 MEMB     173      23SM     C22F     CTL2    -0.180000       12.0110           0
     21512 MEMB     173      23SM     H22F     HAL2     0.900000E-01   1.00800           0
     21513 MEMB     173      23SM     H22G     HAL2     0.900000E-01   1.00800           0
     21514 MEMB     173      23SM     C23F     CTL3    -0.270000       12.0110           0
     21515 MEMB     173      23SM     H23F     HAL3     0.900000E-01   1.00800           0
     21516 MEMB     173      23SM     H23G     HAL3     0.900000E-01   1.00800           0
     21517 MEMB     173      23SM     H23H     HAL3     0.900000E-01   1.00800           0
     21518 MEMB     174      CHL1     C3       CRL1     0.140000       12.0110           0
     21519 MEMB     174      CHL1     H3       HGA1     0.900000E-01   1.00800           0
     21520 MEMB     174      CHL1     O3       OHL     -0.660000       15.9994           0
     21521 MEMB     174      CHL1     H3'      HOL      0.430000       1.00800           0
     21522 MEMB     174      CHL1     C4       CRL2    -0.180000       12.0110           0
     21523 MEMB     174      CHL1     H4A      HGA2     0.900000E-01   1.00800           0
     21524 MEMB     174      CHL1     H4B      HGA2     0.900000E-01   1.00800           0
     21525 MEMB     174      CHL1     C5       CEL1      0.00000       12.0110           0
     21526 MEMB     174      CHL1     C6       CEL1    -0.150000       12.0110           0
     21527 MEMB     174      CHL1     H6       HEL1     0.150000       1.00800           0
     21528 MEMB     174      CHL1     C7       CRL2    -0.180000       12.0110           0
     21529 MEMB     174      CHL1     H7A      HGA2     0.900000E-01   1.00800           0
     21530 MEMB     174      CHL1     H7B      HGA2     0.900000E-01   1.00800           0
     21531 MEMB     174      CHL1     C8       CRL1    -0.900000E-01   12.0110           0
     21532 MEMB     174      CHL1     H8       HGA1     0.900000E-01   1.00800           0
     21533 MEMB     174      CHL1     C14      CRL1    -0.900000E-01   12.0110           0
     21534 MEMB     174      CHL1     H14      HGA1     0.900000E-01   1.00800           0
     21535 MEMB     174      CHL1     C15      CRL2    -0.180000       12.0110           0
     21536 MEMB     174      CHL1     H15A     HGA2     0.900000E-01   1.00800           0
     21537 MEMB     174      CHL1     H15B     HGA2     0.900000E-01   1.00800           0
     21538 MEMB     174      CHL1     C16      CRL2    -0.180000       12.0110           0
     21539 MEMB     174      CHL1     H16A     HGA2     0.900000E-01   1.00800           0
     21540 MEMB     174      CHL1     H16B     HGA2     0.900000E-01   1.00800           0
     21541 MEMB     174      CHL1     C17      CRL1    -0.900000E-01   12.0110           0
     21542 MEMB     174      CHL1     H17      HGA1     0.900000E-01   1.00800           0
     21543 MEMB     174      CHL1     C13      CRL1      0.00000       12.0110           0
     21544 MEMB     174      CHL1     C18      CTL3    -0.270000       12.0110           0
     21545 MEMB     174      CHL1     H18A     HAL3     0.900000E-01   1.00800           0
     21546 MEMB     174      CHL1     H18B     HAL3     0.900000E-01   1.00800           0
     21547 MEMB     174      CHL1     H18C     HAL3     0.900000E-01   1.00800           0
     21548 MEMB     174      CHL1     C12      CRL2    -0.180000       12.0110           0
     21549 MEMB     174      CHL1     H12A     HGA2     0.900000E-01   1.00800           0
     21550 MEMB     174      CHL1     H12B     HGA2     0.900000E-01   1.00800           0
     21551 MEMB     174      CHL1     C11      CRL2    -0.180000       12.0110           0
     21552 MEMB     174      CHL1     H11A     HGA2     0.900000E-01   1.00800           0
     21553 MEMB     174      CHL1     H11B     HGA2     0.900000E-01   1.00800           0
     21554 MEMB     174      CHL1     C9       CRL1    -0.900000E-01   12.0110           0
     21555 MEMB     174      CHL1     H9       HGA1     0.900000E-01   1.00800           0
     21556 MEMB     174      CHL1     C10      CRL1      0.00000       12.0110           0
     21557 MEMB     174      CHL1     C19      CTL3    -0.270000       12.0110           0
     21558 MEMB     174      CHL1     H19A     HAL3     0.900000E-01   1.00800           0
     21559 MEMB     174      CHL1     H19B     HAL3     0.900000E-01   1.00800           0
     21560 MEMB     174      CHL1     H19C     HAL3     0.900000E-01   1.00800           0
     21561 MEMB     174      CHL1     C1       CRL2    -0.180000       12.0110           0
     21562 MEMB     174      CHL1     H1A      HGA2     0.900000E-01   1.00800           0
     21563 MEMB     174      CHL1     H1B      HGA2     0.900000E-01   1.00800           0
     21564 MEMB     174      CHL1     C2       CRL2    -0.180000       12.0110           0
     21565 MEMB     174      CHL1     H2A      HGA2     0.900000E-01   1.00800           0
     21566 MEMB     174      CHL1     H2B      HGA2     0.900000E-01   1.00800           0
     21567 MEMB     174      CHL1     C20      CTL1    -0.900000E-01   12.0110           0
     21568 MEMB     174      CHL1     H20      HAL1     0.900000E-01   1.00800           0
     21569 MEMB     174      CHL1     C21      CTL3    -0.270000       12.0110           0
     21570 MEMB     174      CHL1     H21A     HAL3     0.900000E-01   1.00800           0
     21571 MEMB     174      CHL1     H21B     HAL3     0.900000E-01   1.00800           0
     21572 MEMB     174      CHL1     H21C     HAL3     0.900000E-01   1.00800           0
     21573 MEMB     174      CHL1     C22      CTL2    -0.180000       12.0110           0
     21574 MEMB     174      CHL1     H22A     HAL2     0.900000E-01   1.00800           0
     21575 MEMB     174      CHL1     H22B     HAL2     0.900000E-01   1.00800           0
     21576 MEMB     174      CHL1     C23      CTL2    -0.180000       12.0110           0
     21577 MEMB     174      CHL1     H23A     HAL2     0.900000E-01   1.00800           0
     21578 MEMB     174      CHL1     H23B     HAL2     0.900000E-01   1.00800           0
     21579 MEMB     174      CHL1     C24      CTL2    -0.180000       12.0110           0
     21580 MEMB     174      CHL1     H24A     HAL2     0.900000E-01   1.00800           0
     21581 MEMB     174      CHL1     H24B     HAL2     0.900000E-01   1.00800           0
     21582 MEMB     174      CHL1     C25      CTL1    -0.900000E-01   12.0110           0
     21583 MEMB     174      CHL1     H25      HAL1     0.900000E-01   1.00800           0
     21584 MEMB     174      CHL1     C26      CTL3    -0.270000       12.0110           0
     21585 MEMB     174      CHL1     H26A     HAL3     0.900000E-01   1.00800           0
     21586 MEMB     174      CHL1     H26B     HAL3     0.900000E-01   1.00800           0
     21587 MEMB     174      CHL1     H26C     HAL3     0.900000E-01   1.00800           0
     21588 MEMB     174      CHL1     C27      CTL3    -0.270000       12.0110           0
     21589 MEMB     174      CHL1     H27A     HAL3     0.900000E-01   1.00800           0
     21590 MEMB     174      CHL1     H27B     HAL3     0.900000E-01   1.00800           0
     21591 MEMB     174      CHL1     H27C     HAL3     0.900000E-01   1.00800           0
     21592 MEMB     175      DOPC     N        NTL     -0.600000       14.0070           0
     21593 MEMB     175      DOPC     C12      CTL2    -0.100000       12.0110           0
     21594 MEMB     175      DOPC     H12A     HL       0.250000       1.00800           0
     21595 MEMB     175      DOPC     H12B     HL       0.250000       1.00800           0
     21596 MEMB     175      DOPC     C13      CTL5    -0.350000       12.0110           0
     21597 MEMB     175      DOPC     H13A     HL       0.250000       1.00800           0
     21598 MEMB     175      DOPC     H13B     HL       0.250000       1.00800           0
     21599 MEMB     175      DOPC     H13C     HL       0.250000       1.00800           0
     21600 MEMB     175      DOPC     C14      CTL5    -0.350000       12.0110           0
     21601 MEMB     175      DOPC     H14A     HL       0.250000       1.00800           0
     21602 MEMB     175      DOPC     H14B     HL       0.250000       1.00800           0
     21603 MEMB     175      DOPC     H14C     HL       0.250000       1.00800           0
     21604 MEMB     175      DOPC     C15      CTL5    -0.350000       12.0110           0
     21605 MEMB     175      DOPC     H15A     HL       0.250000       1.00800           0
     21606 MEMB     175      DOPC     H15B     HL       0.250000       1.00800           0
     21607 MEMB     175      DOPC     H15C     HL       0.250000       1.00800           0
     21608 MEMB     175      DOPC     C11      CTL2    -0.800000E-01   12.0110           0
     21609 MEMB     175      DOPC     H11A     HAL2     0.900000E-01   1.00800           0
     21610 MEMB     175      DOPC     H11B     HAL2     0.900000E-01   1.00800           0
     21611 MEMB     175      DOPC     P        PL        1.50000       30.9740           0
     21612 MEMB     175      DOPC     O13      O2L     -0.780000       15.9994           0
     21613 MEMB     175      DOPC     O14      O2L     -0.780000       15.9994           0
     21614 MEMB     175      DOPC     O12      OSLP    -0.570000       15.9994           0
     21615 MEMB     175      DOPC     O11      OSLP    -0.570000       15.9994           0
     21616 MEMB     175      DOPC     C1       CTL2    -0.800000E-01   12.0110           0
     21617 MEMB     175      DOPC     HA       HAL2     0.900000E-01   1.00800           0
     21618 MEMB     175      DOPC     HB       HAL2     0.900000E-01   1.00800           0
     21619 MEMB     175      DOPC     C2       CTL1     0.170000       12.0110           0
     21620 MEMB     175      DOPC     HS       HAL1     0.900000E-01   1.00800           0
     21621 MEMB     175      DOPC     O21      OSL     -0.490000       15.9994           0
     21622 MEMB     175      DOPC     C21      CL       0.900000       12.0110           0
     21623 MEMB     175      DOPC     O22      OBL     -0.630000       15.9994           0
     21624 MEMB     175      DOPC     C22      CTL2    -0.220000       12.0110           0
     21625 MEMB     175      DOPC     H2R      HAL2     0.900000E-01   1.00800           0
     21626 MEMB     175      DOPC     H2S      HAL2     0.900000E-01   1.00800           0
     21627 MEMB     175      DOPC     C3       CTL2     0.800000E-01   12.0110           0
     21628 MEMB     175      DOPC     HX       HAL2     0.900000E-01   1.00800           0
     21629 MEMB     175      DOPC     HY       HAL2     0.900000E-01   1.00800           0
     21630 MEMB     175      DOPC     O31      OSL     -0.490000       15.9994           0
     21631 MEMB     175      DOPC     C31      CL       0.900000       12.0110           0
     21632 MEMB     175      DOPC     O32      OBL     -0.630000       15.9994           0
     21633 MEMB     175      DOPC     C32      CTL2    -0.220000       12.0110           0
     21634 MEMB     175      DOPC     H2X      HAL2     0.900000E-01   1.00800           0
     21635 MEMB     175      DOPC     H2Y      HAL2     0.900000E-01   1.00800           0
     21636 MEMB     175      DOPC     C23      CTL2    -0.180000       12.0110           0
     21637 MEMB     175      DOPC     H3R      HAL2     0.900000E-01   1.00800           0
     21638 MEMB     175      DOPC     H3S      HAL2     0.900000E-01   1.00800           0
     21639 MEMB     175      DOPC     C24      CTL2    -0.180000       12.0110           0
     21640 MEMB     175      DOPC     H4R      HAL2     0.900000E-01   1.00800           0
     21641 MEMB     175      DOPC     H4S      HAL2     0.900000E-01   1.00800           0
     21642 MEMB     175      DOPC     C25      CTL2    -0.180000       12.0110           0
     21643 MEMB     175      DOPC     H5R      HAL2     0.900000E-01   1.00800           0
     21644 MEMB     175      DOPC     H5S      HAL2     0.900000E-01   1.00800           0
     21645 MEMB     175      DOPC     C26      CTL2    -0.180000       12.0110           0
     21646 MEMB     175      DOPC     H6R      HAL2     0.900000E-01   1.00800           0
     21647 MEMB     175      DOPC     H6S      HAL2     0.900000E-01   1.00800           0
     21648 MEMB     175      DOPC     C27      CTL2    -0.180000       12.0110           0
     21649 MEMB     175      DOPC     H7R      HAL2     0.900000E-01   1.00800           0
     21650 MEMB     175      DOPC     H7S      HAL2     0.900000E-01   1.00800           0
     21651 MEMB     175      DOPC     C28      CTL2    -0.180000       12.0110           0
     21652 MEMB     175      DOPC     H8R      HAL2     0.900000E-01   1.00800           0
     21653 MEMB     175      DOPC     H8S      HAL2     0.900000E-01   1.00800           0
     21654 MEMB     175      DOPC     C29      CEL1    -0.150000       12.0110           0
     21655 MEMB     175      DOPC     H9R      HEL1     0.150000       1.00800           0
     21656 MEMB     175      DOPC     C210     CEL1    -0.150000       12.0110           0
     21657 MEMB     175      DOPC     H10R     HEL1     0.150000       1.00800           0
     21658 MEMB     175      DOPC     C211     CTL2    -0.180000       12.0110           0
     21659 MEMB     175      DOPC     H11R     HAL2     0.900000E-01   1.00800           0
     21660 MEMB     175      DOPC     H11S     HAL2     0.900000E-01   1.00800           0
     21661 MEMB     175      DOPC     C212     CTL2    -0.180000       12.0110           0
     21662 MEMB     175      DOPC     H12R     HAL2     0.900000E-01   1.00800           0
     21663 MEMB     175      DOPC     H12S     HAL2     0.900000E-01   1.00800           0
     21664 MEMB     175      DOPC     C213     CTL2    -0.180000       12.0110           0
     21665 MEMB     175      DOPC     H13R     HAL2     0.900000E-01   1.00800           0
     21666 MEMB     175      DOPC     H13S     HAL2     0.900000E-01   1.00800           0
     21667 MEMB     175      DOPC     C214     CTL2    -0.180000       12.0110           0
     21668 MEMB     175      DOPC     H14R     HAL2     0.900000E-01   1.00800           0
     21669 MEMB     175      DOPC     H14S     HAL2     0.900000E-01   1.00800           0
     21670 MEMB     175      DOPC     C215     CTL2    -0.180000       12.0110           0
     21671 MEMB     175      DOPC     H15R     HAL2     0.900000E-01   1.00800           0
     21672 MEMB     175      DOPC     H15S     HAL2     0.900000E-01   1.00800           0
     21673 MEMB     175      DOPC     C216     CTL2    -0.180000       12.0110           0
     21674 MEMB     175      DOPC     H16R     HAL2     0.900000E-01   1.00800           0
     21675 MEMB     175      DOPC     H16S     HAL2     0.900000E-01   1.00800           0
     21676 MEMB     175      DOPC     C217     CTL2    -0.180000       12.0110           0
     21677 MEMB     175      DOPC     H17R     HAL2     0.900000E-01   1.00800           0
     21678 MEMB     175      DOPC     H17S     HAL2     0.900000E-01   1.00800           0
     21679 MEMB     175      DOPC     C218     CTL3    -0.270000       12.0110           0
     21680 MEMB     175      DOPC     H18R     HAL3     0.900000E-01   1.00800           0
     21681 MEMB     175      DOPC     H18S     HAL3     0.900000E-01   1.00800           0
     21682 MEMB     175      DOPC     H18T     HAL3     0.900000E-01   1.00800           0
     21683 MEMB     175      DOPC     C33      CTL2    -0.180000       12.0110           0
     21684 MEMB     175      DOPC     H3X      HAL2     0.900000E-01   1.00800           0
     21685 MEMB     175      DOPC     H3Y      HAL2     0.900000E-01   1.00800           0
     21686 MEMB     175      DOPC     C34      CTL2    -0.180000       12.0110           0
     21687 MEMB     175      DOPC     H4X      HAL2     0.900000E-01   1.00800           0
     21688 MEMB     175      DOPC     H4Y      HAL2     0.900000E-01   1.00800           0
     21689 MEMB     175      DOPC     C35      CTL2    -0.180000       12.0110           0
     21690 MEMB     175      DOPC     H5X      HAL2     0.900000E-01   1.00800           0
     21691 MEMB     175      DOPC     H5Y      HAL2     0.900000E-01   1.00800           0
     21692 MEMB     175      DOPC     C36      CTL2    -0.180000       12.0110           0
     21693 MEMB     175      DOPC     H6X      HAL2     0.900000E-01   1.00800           0
     21694 MEMB     175      DOPC     H6Y      HAL2     0.900000E-01   1.00800           0
     21695 MEMB     175      DOPC     C37      CTL2    -0.180000       12.0110           0
     21696 MEMB     175      DOPC     H7X      HAL2     0.900000E-01   1.00800           0
     21697 MEMB     175      DOPC     H7Y      HAL2     0.900000E-01   1.00800           0
     21698 MEMB     175      DOPC     C38      CTL2    -0.180000       12.0110           0
     21699 MEMB     175      DOPC     H8X      HAL2     0.900000E-01   1.00800           0
     21700 MEMB     175      DOPC     H8Y      HAL2     0.900000E-01   1.00800           0
     21701 MEMB     175      DOPC     C39      CEL1    -0.150000       12.0110           0
     21702 MEMB     175      DOPC     H9X      HEL1     0.150000       1.00800           0
     21703 MEMB     175      DOPC     C310     CEL1    -0.150000       12.0110           0
     21704 MEMB     175      DOPC     H10X     HEL1     0.150000       1.00800           0
     21705 MEMB     175      DOPC     C311     CTL2    -0.180000       12.0110           0
     21706 MEMB     175      DOPC     H11X     HAL2     0.900000E-01   1.00800           0
     21707 MEMB     175      DOPC     H11Y     HAL2     0.900000E-01   1.00800           0
     21708 MEMB     175      DOPC     C312     CTL2    -0.180000       12.0110           0
     21709 MEMB     175      DOPC     H12X     HAL2     0.900000E-01   1.00800           0
     21710 MEMB     175      DOPC     H12Y     HAL2     0.900000E-01   1.00800           0
     21711 MEMB     175      DOPC     C313     CTL2    -0.180000       12.0110           0
     21712 MEMB     175      DOPC     H13X     HAL2     0.900000E-01   1.00800           0
     21713 MEMB     175      DOPC     H13Y     HAL2     0.900000E-01   1.00800           0
     21714 MEMB     175      DOPC     C314     CTL2    -0.180000       12.0110           0
     21715 MEMB     175      DOPC     H14X     HAL2     0.900000E-01   1.00800           0
     21716 MEMB     175      DOPC     H14Y     HAL2     0.900000E-01   1.00800           0
     21717 MEMB     175      DOPC     C315     CTL2    -0.180000       12.0110           0
     21718 MEMB     175      DOPC     H15X     HAL2     0.900000E-01   1.00800           0
     21719 MEMB     175      DOPC     H15Y     HAL2     0.900000E-01   1.00800           0
     21720 MEMB     175      DOPC     C316     CTL2    -0.180000       12.0110           0
     21721 MEMB     175      DOPC     H16X     HAL2     0.900000E-01   1.00800           0
     21722 MEMB     175      DOPC     H16Y     HAL2     0.900000E-01   1.00800           0
     21723 MEMB     175      DOPC     C317     CTL2    -0.180000       12.0110           0
     21724 MEMB     175      DOPC     H17X     HAL2     0.900000E-01   1.00800           0
     21725 MEMB     175      DOPC     H17Y     HAL2     0.900000E-01   1.00800           0
     21726 MEMB     175      DOPC     C318     CTL3    -0.270000       12.0110           0
     21727 MEMB     175      DOPC     H18X     HAL3     0.900000E-01   1.00800           0
     21728 MEMB     175      DOPC     H18Y     HAL3     0.900000E-01   1.00800           0
     21729 MEMB     175      DOPC     H18Z     HAL3     0.900000E-01   1.00800           0
     21730 MEMB     176      DOPE     N        NH3L    -0.300000       14.0070           0
     21731 MEMB     176      DOPE     HN1      HCL      0.330000       1.00800           0
     21732 MEMB     176      DOPE     HN2      HCL      0.330000       1.00800           0
     21733 MEMB     176      DOPE     HN3      HCL      0.330000       1.00800           0
     21734 MEMB     176      DOPE     C12      CTL2     0.130000       12.0110           0
     21735 MEMB     176      DOPE     H12A     HAL2     0.900000E-01   1.00800           0
     21736 MEMB     176      DOPE     H12B     HAL2     0.900000E-01   1.00800           0
     21737 MEMB     176      DOPE     C11      CTL2    -0.800000E-01   12.0110           0
     21738 MEMB     176      DOPE     H11A     HAL2     0.900000E-01   1.00800           0
     21739 MEMB     176      DOPE     H11B     HAL2     0.900000E-01   1.00800           0
     21740 MEMB     176      DOPE     P        PL        1.50000       30.9740           0
     21741 MEMB     176      DOPE     O13      O2L     -0.780000       15.9994           0
     21742 MEMB     176      DOPE     O14      O2L     -0.780000       15.9994           0
     21743 MEMB     176      DOPE     O11      OSLP    -0.570000       15.9994           0
     21744 MEMB     176      DOPE     O12      OSLP    -0.570000       15.9994           0
     21745 MEMB     176      DOPE     C1       CTL2    -0.800000E-01   12.0110           0
     21746 MEMB     176      DOPE     HA       HAL2     0.900000E-01   1.00800           0
     21747 MEMB     176      DOPE     HB       HAL2     0.900000E-01   1.00800           0
     21748 MEMB     176      DOPE     C2       CTL1     0.170000       12.0110           0
     21749 MEMB     176      DOPE     HS       HAL1     0.900000E-01   1.00800           0
     21750 MEMB     176      DOPE     O21      OSL     -0.490000       15.9994           0
     21751 MEMB     176      DOPE     C21      CL       0.900000       12.0110           0
     21752 MEMB     176      DOPE     O22      OBL     -0.630000       15.9994           0
     21753 MEMB     176      DOPE     C22      CTL2    -0.220000       12.0110           0
     21754 MEMB     176      DOPE     H2R      HAL2     0.900000E-01   1.00800           0
     21755 MEMB     176      DOPE     H2S      HAL2     0.900000E-01   1.00800           0
     21756 MEMB     176      DOPE     C3       CTL2     0.800000E-01   12.0110           0
     21757 MEMB     176      DOPE     HX       HAL2     0.900000E-01   1.00800           0
     21758 MEMB     176      DOPE     HY       HAL2     0.900000E-01   1.00800           0
     21759 MEMB     176      DOPE     O31      OSL     -0.490000       15.9994           0
     21760 MEMB     176      DOPE     C31      CL       0.900000       12.0110           0
     21761 MEMB     176      DOPE     O32      OBL     -0.630000       15.9994           0
     21762 MEMB     176      DOPE     C32      CTL2    -0.220000       12.0110           0
     21763 MEMB     176      DOPE     H2X      HAL2     0.900000E-01   1.00800           0
     21764 MEMB     176      DOPE     H2Y      HAL2     0.900000E-01   1.00800           0
     21765 MEMB     176      DOPE     C23      CTL2    -0.180000       12.0110           0
     21766 MEMB     176      DOPE     H3R      HAL2     0.900000E-01   1.00800           0
     21767 MEMB     176      DOPE     H3S      HAL2     0.900000E-01   1.00800           0
     21768 MEMB     176      DOPE     C24      CTL2    -0.180000       12.0110           0
     21769 MEMB     176      DOPE     H4R      HAL2     0.900000E-01   1.00800           0
     21770 MEMB     176      DOPE     H4S      HAL2     0.900000E-01   1.00800           0
     21771 MEMB     176      DOPE     C25      CTL2    -0.180000       12.0110           0
     21772 MEMB     176      DOPE     H5R      HAL2     0.900000E-01   1.00800           0
     21773 MEMB     176      DOPE     H5S      HAL2     0.900000E-01   1.00800           0
     21774 MEMB     176      DOPE     C26      CTL2    -0.180000       12.0110           0
     21775 MEMB     176      DOPE     H6R      HAL2     0.900000E-01   1.00800           0
     21776 MEMB     176      DOPE     H6S      HAL2     0.900000E-01   1.00800           0
     21777 MEMB     176      DOPE     C27      CTL2    -0.180000       12.0110           0
     21778 MEMB     176      DOPE     H7R      HAL2     0.900000E-01   1.00800           0
     21779 MEMB     176      DOPE     H7S      HAL2     0.900000E-01   1.00800           0
     21780 MEMB     176      DOPE     C28      CTL2    -0.180000       12.0110           0
     21781 MEMB     176      DOPE     H8R      HAL2     0.900000E-01   1.00800           0
     21782 MEMB     176      DOPE     H8S      HAL2     0.900000E-01   1.00800           0
     21783 MEMB     176      DOPE     C29      CEL1    -0.150000       12.0110           0
     21784 MEMB     176      DOPE     H9R      HEL1     0.150000       1.00800           0
     21785 MEMB     176      DOPE     C210     CEL1    -0.150000       12.0110           0
     21786 MEMB     176      DOPE     H10R     HEL1     0.150000       1.00800           0
     21787 MEMB     176      DOPE     C211     CTL2    -0.180000       12.0110           0
     21788 MEMB     176      DOPE     H11R     HAL2     0.900000E-01   1.00800           0
     21789 MEMB     176      DOPE     H11S     HAL2     0.900000E-01   1.00800           0
     21790 MEMB     176      DOPE     C212     CTL2    -0.180000       12.0110           0
     21791 MEMB     176      DOPE     H12R     HAL2     0.900000E-01   1.00800           0
     21792 MEMB     176      DOPE     H12S     HAL2     0.900000E-01   1.00800           0
     21793 MEMB     176      DOPE     C213     CTL2    -0.180000       12.0110           0
     21794 MEMB     176      DOPE     H13R     HAL2     0.900000E-01   1.00800           0
     21795 MEMB     176      DOPE     H13S     HAL2     0.900000E-01   1.00800           0
     21796 MEMB     176      DOPE     C214     CTL2    -0.180000       12.0110           0
     21797 MEMB     176      DOPE     H14R     HAL2     0.900000E-01   1.00800           0
     21798 MEMB     176      DOPE     H14S     HAL2     0.900000E-01   1.00800           0
     21799 MEMB     176      DOPE     C215     CTL2    -0.180000       12.0110           0
     21800 MEMB     176      DOPE     H15R     HAL2     0.900000E-01   1.00800           0
     21801 MEMB     176      DOPE     H15S     HAL2     0.900000E-01   1.00800           0
     21802 MEMB     176      DOPE     C216     CTL2    -0.180000       12.0110           0
     21803 MEMB     176      DOPE     H16R     HAL2     0.900000E-01   1.00800           0
     21804 MEMB     176      DOPE     H16S     HAL2     0.900000E-01   1.00800           0
     21805 MEMB     176      DOPE     C217     CTL2    -0.180000       12.0110           0
     21806 MEMB     176      DOPE     H17R     HAL2     0.900000E-01   1.00800           0
     21807 MEMB     176      DOPE     H17S     HAL2     0.900000E-01   1.00800           0
     21808 MEMB     176      DOPE     C218     CTL3    -0.270000       12.0110           0
     21809 MEMB     176      DOPE     H18R     HAL3     0.900000E-01   1.00800           0
     21810 MEMB     176      DOPE     H18S     HAL3     0.900000E-01   1.00800           0
     21811 MEMB     176      DOPE     H18T     HAL3     0.900000E-01   1.00800           0
     21812 MEMB     176      DOPE     C33      CTL2    -0.180000       12.0110           0
     21813 MEMB     176      DOPE     H3X      HAL2     0.900000E-01   1.00800           0
     21814 MEMB     176      DOPE     H3Y      HAL2     0.900000E-01   1.00800           0
     21815 MEMB     176      DOPE     C34      CTL2    -0.180000       12.0110           0
     21816 MEMB     176      DOPE     H4X      HAL2     0.900000E-01   1.00800           0
     21817 MEMB     176      DOPE     H4Y      HAL2     0.900000E-01   1.00800           0
     21818 MEMB     176      DOPE     C35      CTL2    -0.180000       12.0110           0
     21819 MEMB     176      DOPE     H5X      HAL2     0.900000E-01   1.00800           0
     21820 MEMB     176      DOPE     H5Y      HAL2     0.900000E-01   1.00800           0
     21821 MEMB     176      DOPE     C36      CTL2    -0.180000       12.0110           0
     21822 MEMB     176      DOPE     H6X      HAL2     0.900000E-01   1.00800           0
     21823 MEMB     176      DOPE     H6Y      HAL2     0.900000E-01   1.00800           0
     21824 MEMB     176      DOPE     C37      CTL2    -0.180000       12.0110           0
     21825 MEMB     176      DOPE     H7X      HAL2     0.900000E-01   1.00800           0
     21826 MEMB     176      DOPE     H7Y      HAL2     0.900000E-01   1.00800           0
     21827 MEMB     176      DOPE     C38      CTL2    -0.180000       12.0110           0
     21828 MEMB     176      DOPE     H8X      HAL2     0.900000E-01   1.00800           0
     21829 MEMB     176      DOPE     H8Y      HAL2     0.900000E-01   1.00800           0
     21830 MEMB     176      DOPE     C39      CEL1    -0.150000       12.0110           0
     21831 MEMB     176      DOPE     H9X      HEL1     0.150000       1.00800           0
     21832 MEMB     176      DOPE     C310     CEL1    -0.150000       12.0110           0
     21833 MEMB     176      DOPE     H10X     HEL1     0.150000       1.00800           0
     21834 MEMB     176      DOPE     C311     CTL2    -0.180000       12.0110           0
     21835 MEMB     176      DOPE     H11X     HAL2     0.900000E-01   1.00800           0
     21836 MEMB     176      DOPE     H11Y     HAL2     0.900000E-01   1.00800           0
     21837 MEMB     176      DOPE     C312     CTL2    -0.180000       12.0110           0
     21838 MEMB     176      DOPE     H12X     HAL2     0.900000E-01   1.00800           0
     21839 MEMB     176      DOPE     H12Y     HAL2     0.900000E-01   1.00800           0
     21840 MEMB     176      DOPE     C313     CTL2    -0.180000       12.0110           0
     21841 MEMB     176      DOPE     H13X     HAL2     0.900000E-01   1.00800           0
     21842 MEMB     176      DOPE     H13Y     HAL2     0.900000E-01   1.00800           0
     21843 MEMB     176      DOPE     C314     CTL2    -0.180000       12.0110           0
     21844 MEMB     176      DOPE     H14X     HAL2     0.900000E-01   1.00800           0
     21845 MEMB     176      DOPE     H14Y     HAL2     0.900000E-01   1.00800           0
     21846 MEMB     176      DOPE     C315     CTL2    -0.180000       12.0110           0
     21847 MEMB     176      DOPE     H15X     HAL2     0.900000E-01   1.00800           0
     21848 MEMB     176      DOPE     H15Y     HAL2     0.900000E-01   1.00800           0
     21849 MEMB     176      DOPE     C316     CTL2    -0.180000       12.0110           0
     21850 MEMB     176      DOPE     H16X     HAL2     0.900000E-01   1.00800           0
     21851 MEMB     176      DOPE     H16Y     HAL2     0.900000E-01   1.00800           0
     21852 MEMB     176      DOPE     C317     CTL2    -0.180000       12.0110           0
     21853 MEMB     176      DOPE     H17X     HAL2     0.900000E-01   1.00800           0
     21854 MEMB     176      DOPE     H17Y     HAL2     0.900000E-01   1.00800           0
     21855 MEMB     176      DOPE     C318     CTL3    -0.270000       12.0110           0
     21856 MEMB     176      DOPE     H18X     HAL3     0.900000E-01   1.00800           0
     21857 MEMB     176      DOPE     H18Y     HAL3     0.900000E-01   1.00800           0
     21858 MEMB     176      DOPE     H18Z     HAL3     0.900000E-01   1.00800           0
     21859 MEMB     177      DOPC     N        NTL     -0.600000       14.0070           0
     21860 MEMB     177      DOPC     C12      CTL2    -0.100000       12.0110           0
     21861 MEMB     177      DOPC     H12A     HL       0.250000       1.00800           0
     21862 MEMB     177      DOPC     H12B     HL       0.250000       1.00800           0
     21863 MEMB     177      DOPC     C13      CTL5    -0.350000       12.0110           0
     21864 MEMB     177      DOPC     H13A     HL       0.250000       1.00800           0
     21865 MEMB     177      DOPC     H13B     HL       0.250000       1.00800           0
     21866 MEMB     177      DOPC     H13C     HL       0.250000       1.00800           0
     21867 MEMB     177      DOPC     C14      CTL5    -0.350000       12.0110           0
     21868 MEMB     177      DOPC     H14A     HL       0.250000       1.00800           0
     21869 MEMB     177      DOPC     H14B     HL       0.250000       1.00800           0
     21870 MEMB     177      DOPC     H14C     HL       0.250000       1.00800           0
     21871 MEMB     177      DOPC     C15      CTL5    -0.350000       12.0110           0
     21872 MEMB     177      DOPC     H15A     HL       0.250000       1.00800           0
     21873 MEMB     177      DOPC     H15B     HL       0.250000       1.00800           0
     21874 MEMB     177      DOPC     H15C     HL       0.250000       1.00800           0
     21875 MEMB     177      DOPC     C11      CTL2    -0.800000E-01   12.0110           0
     21876 MEMB     177      DOPC     H11A     HAL2     0.900000E-01   1.00800           0
     21877 MEMB     177      DOPC     H11B     HAL2     0.900000E-01   1.00800           0
     21878 MEMB     177      DOPC     P        PL        1.50000       30.9740           0
     21879 MEMB     177      DOPC     O13      O2L     -0.780000       15.9994           0
     21880 MEMB     177      DOPC     O14      O2L     -0.780000       15.9994           0
     21881 MEMB     177      DOPC     O12      OSLP    -0.570000       15.9994           0
     21882 MEMB     177      DOPC     O11      OSLP    -0.570000       15.9994           0
     21883 MEMB     177      DOPC     C1       CTL2    -0.800000E-01   12.0110           0
     21884 MEMB     177      DOPC     HA       HAL2     0.900000E-01   1.00800           0
     21885 MEMB     177      DOPC     HB       HAL2     0.900000E-01   1.00800           0
     21886 MEMB     177      DOPC     C2       CTL1     0.170000       12.0110           0
     21887 MEMB     177      DOPC     HS       HAL1     0.900000E-01   1.00800           0
     21888 MEMB     177      DOPC     O21      OSL     -0.490000       15.9994           0
     21889 MEMB     177      DOPC     C21      CL       0.900000       12.0110           0
     21890 MEMB     177      DOPC     O22      OBL     -0.630000       15.9994           0
     21891 MEMB     177      DOPC     C22      CTL2    -0.220000       12.0110           0
     21892 MEMB     177      DOPC     H2R      HAL2     0.900000E-01   1.00800           0
     21893 MEMB     177      DOPC     H2S      HAL2     0.900000E-01   1.00800           0
     21894 MEMB     177      DOPC     C3       CTL2     0.800000E-01   12.0110           0
     21895 MEMB     177      DOPC     HX       HAL2     0.900000E-01   1.00800           0
     21896 MEMB     177      DOPC     HY       HAL2     0.900000E-01   1.00800           0
     21897 MEMB     177      DOPC     O31      OSL     -0.490000       15.9994           0
     21898 MEMB     177      DOPC     C31      CL       0.900000       12.0110           0
     21899 MEMB     177      DOPC     O32      OBL     -0.630000       15.9994           0
     21900 MEMB     177      DOPC     C32      CTL2    -0.220000       12.0110           0
     21901 MEMB     177      DOPC     H2X      HAL2     0.900000E-01   1.00800           0
     21902 MEMB     177      DOPC     H2Y      HAL2     0.900000E-01   1.00800           0
     21903 MEMB     177      DOPC     C23      CTL2    -0.180000       12.0110           0
     21904 MEMB     177      DOPC     H3R      HAL2     0.900000E-01   1.00800           0
     21905 MEMB     177      DOPC     H3S      HAL2     0.900000E-01   1.00800           0
     21906 MEMB     177      DOPC     C24      CTL2    -0.180000       12.0110           0
     21907 MEMB     177      DOPC     H4R      HAL2     0.900000E-01   1.00800           0
     21908 MEMB     177      DOPC     H4S      HAL2     0.900000E-01   1.00800           0
     21909 MEMB     177      DOPC     C25      CTL2    -0.180000       12.0110           0
     21910 MEMB     177      DOPC     H5R      HAL2     0.900000E-01   1.00800           0
     21911 MEMB     177      DOPC     H5S      HAL2     0.900000E-01   1.00800           0
     21912 MEMB     177      DOPC     C26      CTL2    -0.180000       12.0110           0
     21913 MEMB     177      DOPC     H6R      HAL2     0.900000E-01   1.00800           0
     21914 MEMB     177      DOPC     H6S      HAL2     0.900000E-01   1.00800           0
     21915 MEMB     177      DOPC     C27      CTL2    -0.180000       12.0110           0
     21916 MEMB     177      DOPC     H7R      HAL2     0.900000E-01   1.00800           0
     21917 MEMB     177      DOPC     H7S      HAL2     0.900000E-01   1.00800           0
     21918 MEMB     177      DOPC     C28      CTL2    -0.180000       12.0110           0
     21919 MEMB     177      DOPC     H8R      HAL2     0.900000E-01   1.00800           0
     21920 MEMB     177      DOPC     H8S      HAL2     0.900000E-01   1.00800           0
     21921 MEMB     177      DOPC     C29      CEL1    -0.150000       12.0110           0
     21922 MEMB     177      DOPC     H9R      HEL1     0.150000       1.00800           0
     21923 MEMB     177      DOPC     C210     CEL1    -0.150000       12.0110           0
     21924 MEMB     177      DOPC     H10R     HEL1     0.150000       1.00800           0
     21925 MEMB     177      DOPC     C211     CTL2    -0.180000       12.0110           0
     21926 MEMB     177      DOPC     H11R     HAL2     0.900000E-01   1.00800           0
     21927 MEMB     177      DOPC     H11S     HAL2     0.900000E-01   1.00800           0
     21928 MEMB     177      DOPC     C212     CTL2    -0.180000       12.0110           0
     21929 MEMB     177      DOPC     H12R     HAL2     0.900000E-01   1.00800           0
     21930 MEMB     177      DOPC     H12S     HAL2     0.900000E-01   1.00800           0
     21931 MEMB     177      DOPC     C213     CTL2    -0.180000       12.0110           0
     21932 MEMB     177      DOPC     H13R     HAL2     0.900000E-01   1.00800           0
     21933 MEMB     177      DOPC     H13S     HAL2     0.900000E-01   1.00800           0
     21934 MEMB     177      DOPC     C214     CTL2    -0.180000       12.0110           0
     21935 MEMB     177      DOPC     H14R     HAL2     0.900000E-01   1.00800           0
     21936 MEMB     177      DOPC     H14S     HAL2     0.900000E-01   1.00800           0
     21937 MEMB     177      DOPC     C215     CTL2    -0.180000       12.0110           0
     21938 MEMB     177      DOPC     H15R     HAL2     0.900000E-01   1.00800           0
     21939 MEMB     177      DOPC     H15S     HAL2     0.900000E-01   1.00800           0
     21940 MEMB     177      DOPC     C216     CTL2    -0.180000       12.0110           0
     21941 MEMB     177      DOPC     H16R     HAL2     0.900000E-01   1.00800           0
     21942 MEMB     177      DOPC     H16S     HAL2     0.900000E-01   1.00800           0
     21943 MEMB     177      DOPC     C217     CTL2    -0.180000       12.0110           0
     21944 MEMB     177      DOPC     H17R     HAL2     0.900000E-01   1.00800           0
     21945 MEMB     177      DOPC     H17S     HAL2     0.900000E-01   1.00800           0
     21946 MEMB     177      DOPC     C218     CTL3    -0.270000       12.0110           0
     21947 MEMB     177      DOPC     H18R     HAL3     0.900000E-01   1.00800           0
     21948 MEMB     177      DOPC     H18S     HAL3     0.900000E-01   1.00800           0
     21949 MEMB     177      DOPC     H18T     HAL3     0.900000E-01   1.00800           0
     21950 MEMB     177      DOPC     C33      CTL2    -0.180000       12.0110           0
     21951 MEMB     177      DOPC     H3X      HAL2     0.900000E-01   1.00800           0
     21952 MEMB     177      DOPC     H3Y      HAL2     0.900000E-01   1.00800           0
     21953 MEMB     177      DOPC     C34      CTL2    -0.180000       12.0110           0
     21954 MEMB     177      DOPC     H4X      HAL2     0.900000E-01   1.00800           0
     21955 MEMB     177      DOPC     H4Y      HAL2     0.900000E-01   1.00800           0
     21956 MEMB     177      DOPC     C35      CTL2    -0.180000       12.0110           0
     21957 MEMB     177      DOPC     H5X      HAL2     0.900000E-01   1.00800           0
     21958 MEMB     177      DOPC     H5Y      HAL2     0.900000E-01   1.00800           0
     21959 MEMB     177      DOPC     C36      CTL2    -0.180000       12.0110           0
     21960 MEMB     177      DOPC     H6X      HAL2     0.900000E-01   1.00800           0
     21961 MEMB     177      DOPC     H6Y      HAL2     0.900000E-01   1.00800           0
     21962 MEMB     177      DOPC     C37      CTL2    -0.180000       12.0110           0
     21963 MEMB     177      DOPC     H7X      HAL2     0.900000E-01   1.00800           0
     21964 MEMB     177      DOPC     H7Y      HAL2     0.900000E-01   1.00800           0
     21965 MEMB     177      DOPC     C38      CTL2    -0.180000       12.0110           0
     21966 MEMB     177      DOPC     H8X      HAL2     0.900000E-01   1.00800           0
     21967 MEMB     177      DOPC     H8Y      HAL2     0.900000E-01   1.00800           0
     21968 MEMB     177      DOPC     C39      CEL1    -0.150000       12.0110           0
     21969 MEMB     177      DOPC     H9X      HEL1     0.150000       1.00800           0
     21970 MEMB     177      DOPC     C310     CEL1    -0.150000       12.0110           0
     21971 MEMB     177      DOPC     H10X     HEL1     0.150000       1.00800           0
     21972 MEMB     177      DOPC     C311     CTL2    -0.180000       12.0110           0
     21973 MEMB     177      DOPC     H11X     HAL2     0.900000E-01   1.00800           0
     21974 MEMB     177      DOPC     H11Y     HAL2     0.900000E-01   1.00800           0
     21975 MEMB     177      DOPC     C312     CTL2    -0.180000       12.0110           0
     21976 MEMB     177      DOPC     H12X     HAL2     0.900000E-01   1.00800           0
     21977 MEMB     177      DOPC     H12Y     HAL2     0.900000E-01   1.00800           0
     21978 MEMB     177      DOPC     C313     CTL2    -0.180000       12.0110           0
     21979 MEMB     177      DOPC     H13X     HAL2     0.900000E-01   1.00800           0
     21980 MEMB     177      DOPC     H13Y     HAL2     0.900000E-01   1.00800           0
     21981 MEMB     177      DOPC     C314     CTL2    -0.180000       12.0110           0
     21982 MEMB     177      DOPC     H14X     HAL2     0.900000E-01   1.00800           0
     21983 MEMB     177      DOPC     H14Y     HAL2     0.900000E-01   1.00800           0
     21984 MEMB     177      DOPC     C315     CTL2    -0.180000       12.0110           0
     21985 MEMB     177      DOPC     H15X     HAL2     0.900000E-01   1.00800           0
     21986 MEMB     177      DOPC     H15Y     HAL2     0.900000E-01   1.00800           0
     21987 MEMB     177      DOPC     C316     CTL2    -0.180000       12.0110           0
     21988 MEMB     177      DOPC     H16X     HAL2     0.900000E-01   1.00800           0
     21989 MEMB     177      DOPC     H16Y     HAL2     0.900000E-01   1.00800           0
     21990 MEMB     177      DOPC     C317     CTL2    -0.180000       12.0110           0
     21991 MEMB     177      DOPC     H17X     HAL2     0.900000E-01   1.00800           0
     21992 MEMB     177      DOPC     H17Y     HAL2     0.900000E-01   1.00800           0
     21993 MEMB     177      DOPC     C318     CTL3    -0.270000       12.0110           0
     21994 MEMB     177      DOPC     H18X     HAL3     0.900000E-01   1.00800           0
     21995 MEMB     177      DOPC     H18Y     HAL3     0.900000E-01   1.00800           0
     21996 MEMB     177      DOPC     H18Z     HAL3     0.900000E-01   1.00800           0
     21997 MEMB     178      23SM     N        NTL     -0.600000       14.0070           0
     21998 MEMB     178      23SM     C15      CTL5    -0.350000       12.0110           0
     21999 MEMB     178      23SM     H15A     HL       0.250000       1.00800           0
     22000 MEMB     178      23SM     H15B     HL       0.250000       1.00800           0
     22001 MEMB     178      23SM     H15C     HL       0.250000       1.00800           0
     22002 MEMB     178      23SM     C14      CTL5    -0.350000       12.0110           0
     22003 MEMB     178      23SM     H14A     HL       0.250000       1.00800           0
     22004 MEMB     178      23SM     H14B     HL       0.250000       1.00800           0
     22005 MEMB     178      23SM     H14C     HL       0.250000       1.00800           0
     22006 MEMB     178      23SM     C13      CTL5    -0.350000       12.0110           0
     22007 MEMB     178      23SM     H13A     HL       0.250000       1.00800           0
     22008 MEMB     178      23SM     H13B     HL       0.250000       1.00800           0
     22009 MEMB     178      23SM     H13C     HL       0.250000       1.00800           0
     22010 MEMB     178      23SM     C12      CTL2    -0.100000       12.0110           0
     22011 MEMB     178      23SM     H12A     HL       0.250000       1.00800           0
     22012 MEMB     178      23SM     H12B     HL       0.250000       1.00800           0
     22013 MEMB     178      23SM     C11      CTL2    -0.800000E-01   12.0110           0
     22014 MEMB     178      23SM     H11A     HAL2     0.900000E-01   1.00800           0
     22015 MEMB     178      23SM     H11B     HAL2     0.900000E-01   1.00800           0
     22016 MEMB     178      23SM     P        PL        1.50000       30.9740           0
     22017 MEMB     178      23SM     O13      O2L     -0.780000       15.9994           0
     22018 MEMB     178      23SM     O14      O2L     -0.780000       15.9994           0
     22019 MEMB     178      23SM     O11      OSLP    -0.570000       15.9994           0
     22020 MEMB     178      23SM     O12      OSLP    -0.570000       15.9994           0
     22021 MEMB     178      23SM     C1S      CTL2    -0.800000E-01   12.0110           0
     22022 MEMB     178      23SM     H1S      HAL2     0.900000E-01   1.00800           0
     22023 MEMB     178      23SM     H1T      HAL2     0.900000E-01   1.00800           0
     22024 MEMB     178      23SM     NF       NHL     -0.700000       14.0070           0
     22025 MEMB     178      23SM     HNF      H        0.350000       1.00800           0
     22026 MEMB     178      23SM     C2S      CTL1     0.300000       12.0110           0
     22027 MEMB     178      23SM     H2S      HAL1     0.500000E-01   1.00800           0
     22028 MEMB     178      23SM     C3S      CTO1     0.500000       12.0110           0
     22029 MEMB     178      23SM     H3S      HAL1    -0.110000       1.00800           0
     22030 MEMB     178      23SM     O3       OHL     -0.690000       15.9994           0
     22031 MEMB     178      23SM     HO3      HOL      0.300000       1.00800           0
     22032 MEMB     178      23SM     C4S      CEL3    -0.150000       12.0110           0
     22033 MEMB     178      23SM     H4S      HEL1     0.150000       1.00800           0
     22034 MEMB     178      23SM     C5S      CEL3    -0.150000       12.0110           0
     22035 MEMB     178      23SM     H5S      HEL1     0.150000       1.00800           0
     22036 MEMB     178      23SM     C6S      CTL2    -0.180000       12.0110           0
     22037 MEMB     178      23SM     H6S      HAL2     0.900000E-01   1.00800           0
     22038 MEMB     178      23SM     H6T      HAL2     0.900000E-01   1.00800           0
     22039 MEMB     178      23SM     C7S      CTL2    -0.180000       12.0110           0
     22040 MEMB     178      23SM     H7S      HAL2     0.900000E-01   1.00800           0
     22041 MEMB     178      23SM     H7T      HAL2     0.900000E-01   1.00800           0
     22042 MEMB     178      23SM     C8S      CTL2    -0.180000       12.0110           0
     22043 MEMB     178      23SM     H8S      HAL2     0.900000E-01   1.00800           0
     22044 MEMB     178      23SM     H8T      HAL2     0.900000E-01   1.00800           0
     22045 MEMB     178      23SM     C9S      CTL2    -0.180000       12.0110           0
     22046 MEMB     178      23SM     H9S      HAL2     0.900000E-01   1.00800           0
     22047 MEMB     178      23SM     H9T      HAL2     0.900000E-01   1.00800           0
     22048 MEMB     178      23SM     C10S     CTL2    -0.180000       12.0110           0
     22049 MEMB     178      23SM     H10S     HAL2     0.900000E-01   1.00800           0
     22050 MEMB     178      23SM     H10T     HAL2     0.900000E-01   1.00800           0
     22051 MEMB     178      23SM     C11S     CTL2    -0.180000       12.0110           0
     22052 MEMB     178      23SM     H11S     HAL2     0.900000E-01   1.00800           0
     22053 MEMB     178      23SM     H11T     HAL2     0.900000E-01   1.00800           0
     22054 MEMB     178      23SM     C12S     CTL2    -0.180000       12.0110           0
     22055 MEMB     178      23SM     H12S     HAL2     0.900000E-01   1.00800           0
     22056 MEMB     178      23SM     H12T     HAL2     0.900000E-01   1.00800           0
     22057 MEMB     178      23SM     C13S     CTL2    -0.180000       12.0110           0
     22058 MEMB     178      23SM     H13S     HAL2     0.900000E-01   1.00800           0
     22059 MEMB     178      23SM     H13T     HAL2     0.900000E-01   1.00800           0
     22060 MEMB     178      23SM     C14S     CTL2    -0.180000       12.0110           0
     22061 MEMB     178      23SM     H14S     HAL2     0.900000E-01   1.00800           0
     22062 MEMB     178      23SM     H14T     HAL2     0.900000E-01   1.00800           0
     22063 MEMB     178      23SM     C15S     CTL2    -0.180000       12.0110           0
     22064 MEMB     178      23SM     H15S     HAL2     0.900000E-01   1.00800           0
     22065 MEMB     178      23SM     H15T     HAL2     0.900000E-01   1.00800           0
     22066 MEMB     178      23SM     C16S     CTL2    -0.180000       12.0110           0
     22067 MEMB     178      23SM     H16S     HAL2     0.900000E-01   1.00800           0
     22068 MEMB     178      23SM     H16T     HAL2     0.900000E-01   1.00800           0
     22069 MEMB     178      23SM     C17S     CTL2    -0.180000       12.0110           0
     22070 MEMB     178      23SM     H17S     HAL2     0.900000E-01   1.00800           0
     22071 MEMB     178      23SM     H17T     HAL2     0.900000E-01   1.00800           0
     22072 MEMB     178      23SM     C18S     CTL3    -0.270000       12.0110           0
     22073 MEMB     178      23SM     H18S     HAL3     0.900000E-01   1.00800           0
     22074 MEMB     178      23SM     H18T     HAL3     0.900000E-01   1.00800           0
     22075 MEMB     178      23SM     H18U     HAL3     0.900000E-01   1.00800           0
     22076 MEMB     178      23SM     C1F      C        0.550000       12.0110           0
     22077 MEMB     178      23SM     OF       O       -0.600000       15.9994           0
     22078 MEMB     178      23SM     C2F      CTL2    -0.700000E-01   12.0110           0
     22079 MEMB     178      23SM     H2F      HAL2     0.600000E-01   1.00800           0
     22080 MEMB     178      23SM     H2G      HAL2     0.600000E-01   1.00800           0
     22081 MEMB     178      23SM     C3F      CTL2    -0.180000       12.0110           0
     22082 MEMB     178      23SM     H3F      HAL2     0.900000E-01   1.00800           0
     22083 MEMB     178      23SM     H3G      HAL2     0.900000E-01   1.00800           0
     22084 MEMB     178      23SM     C4F      CTL2    -0.180000       12.0110           0
     22085 MEMB     178      23SM     H4F      HAL2     0.900000E-01   1.00800           0
     22086 MEMB     178      23SM     H4G      HAL2     0.900000E-01   1.00800           0
     22087 MEMB     178      23SM     C5F      CTL2    -0.180000       12.0110           0
     22088 MEMB     178      23SM     H5F      HAL2     0.900000E-01   1.00800           0
     22089 MEMB     178      23SM     H5G      HAL2     0.900000E-01   1.00800           0
     22090 MEMB     178      23SM     C6F      CTL2    -0.180000       12.0110           0
     22091 MEMB     178      23SM     H6F      HAL2     0.900000E-01   1.00800           0
     22092 MEMB     178      23SM     H6G      HAL2     0.900000E-01   1.00800           0
     22093 MEMB     178      23SM     C7F      CTL2    -0.180000       12.0110           0
     22094 MEMB     178      23SM     H7F      HAL2     0.900000E-01   1.00800           0
     22095 MEMB     178      23SM     H7G      HAL2     0.900000E-01   1.00800           0
     22096 MEMB     178      23SM     C8F      CTL2    -0.180000       12.0110           0
     22097 MEMB     178      23SM     H8F      HAL2     0.900000E-01   1.00800           0
     22098 MEMB     178      23SM     H8G      HAL2     0.900000E-01   1.00800           0
     22099 MEMB     178      23SM     C9F      CTL2    -0.180000       12.0110           0
     22100 MEMB     178      23SM     H9F      HAL2     0.900000E-01   1.00800           0
     22101 MEMB     178      23SM     H9G      HAL2     0.900000E-01   1.00800           0
     22102 MEMB     178      23SM     C10F     CTL2    -0.180000       12.0110           0
     22103 MEMB     178      23SM     H10F     HAL2     0.900000E-01   1.00800           0
     22104 MEMB     178      23SM     H10G     HAL2     0.900000E-01   1.00800           0
     22105 MEMB     178      23SM     C11F     CTL2    -0.180000       12.0110           0
     22106 MEMB     178      23SM     H11F     HAL2     0.900000E-01   1.00800           0
     22107 MEMB     178      23SM     H11G     HAL2     0.900000E-01   1.00800           0
     22108 MEMB     178      23SM     C12F     CTL2    -0.180000       12.0110           0
     22109 MEMB     178      23SM     H12F     HAL2     0.900000E-01   1.00800           0
     22110 MEMB     178      23SM     H12G     HAL2     0.900000E-01   1.00800           0
     22111 MEMB     178      23SM     C13F     CTL2    -0.180000       12.0110           0
     22112 MEMB     178      23SM     H13F     HAL2     0.900000E-01   1.00800           0
     22113 MEMB     178      23SM     H13G     HAL2     0.900000E-01   1.00800           0
     22114 MEMB     178      23SM     C14F     CTL2    -0.180000       12.0110           0
     22115 MEMB     178      23SM     H14F     HAL2     0.900000E-01   1.00800           0
     22116 MEMB     178      23SM     H14G     HAL2     0.900000E-01   1.00800           0
     22117 MEMB     178      23SM     C15F     CTL2    -0.180000       12.0110           0
     22118 MEMB     178      23SM     H15F     HAL2     0.900000E-01   1.00800           0
     22119 MEMB     178      23SM     H15G     HAL2     0.900000E-01   1.00800           0
     22120 MEMB     178      23SM     C16F     CTL2    -0.180000       12.0110           0
     22121 MEMB     178      23SM     H16F     HAL2     0.900000E-01   1.00800           0
     22122 MEMB     178      23SM     H16G     HAL2     0.900000E-01   1.00800           0
     22123 MEMB     178      23SM     C17F     CTL2    -0.180000       12.0110           0
     22124 MEMB     178      23SM     H17F     HAL2     0.900000E-01   1.00800           0
     22125 MEMB     178      23SM     H17G     HAL2     0.900000E-01   1.00800           0
     22126 MEMB     178      23SM     C18F     CTL2    -0.180000       12.0110           0
     22127 MEMB     178      23SM     H18F     HAL2     0.900000E-01   1.00800           0
     22128 MEMB     178      23SM     H18G     HAL2     0.900000E-01   1.00800           0
     22129 MEMB     178      23SM     C19F     CTL2    -0.180000       12.0110           0
     22130 MEMB     178      23SM     H19F     HAL2     0.900000E-01   1.00800           0
     22131 MEMB     178      23SM     H19G     HAL2     0.900000E-01   1.00800           0
     22132 MEMB     178      23SM     C20F     CTL2    -0.180000       12.0110           0
     22133 MEMB     178      23SM     H20F     HAL2     0.900000E-01   1.00800           0
     22134 MEMB     178      23SM     H20G     HAL2     0.900000E-01   1.00800           0
     22135 MEMB     178      23SM     C21F     CTL2    -0.180000       12.0110           0
     22136 MEMB     178      23SM     H21F     HAL2     0.900000E-01   1.00800           0
     22137 MEMB     178      23SM     H21G     HAL2     0.900000E-01   1.00800           0
     22138 MEMB     178      23SM     C22F     CTL2    -0.180000       12.0110           0
     22139 MEMB     178      23SM     H22F     HAL2     0.900000E-01   1.00800           0
     22140 MEMB     178      23SM     H22G     HAL2     0.900000E-01   1.00800           0
     22141 MEMB     178      23SM     C23F     CTL3    -0.270000       12.0110           0
     22142 MEMB     178      23SM     H23F     HAL3     0.900000E-01   1.00800           0
     22143 MEMB     178      23SM     H23G     HAL3     0.900000E-01   1.00800           0
     22144 MEMB     178      23SM     H23H     HAL3     0.900000E-01   1.00800           0
     22145 MEMB     179      DOPE     N        NH3L    -0.300000       14.0070           0
     22146 MEMB     179      DOPE     HN1      HCL      0.330000       1.00800           0
     22147 MEMB     179      DOPE     HN2      HCL      0.330000       1.00800           0
     22148 MEMB     179      DOPE     HN3      HCL      0.330000       1.00800           0
     22149 MEMB     179      DOPE     C12      CTL2     0.130000       12.0110           0
     22150 MEMB     179      DOPE     H12A     HAL2     0.900000E-01   1.00800           0
     22151 MEMB     179      DOPE     H12B     HAL2     0.900000E-01   1.00800           0
     22152 MEMB     179      DOPE     C11      CTL2    -0.800000E-01   12.0110           0
     22153 MEMB     179      DOPE     H11A     HAL2     0.900000E-01   1.00800           0
     22154 MEMB     179      DOPE     H11B     HAL2     0.900000E-01   1.00800           0
     22155 MEMB     179      DOPE     P        PL        1.50000       30.9740           0
     22156 MEMB     179      DOPE     O13      O2L     -0.780000       15.9994           0
     22157 MEMB     179      DOPE     O14      O2L     -0.780000       15.9994           0
     22158 MEMB     179      DOPE     O11      OSLP    -0.570000       15.9994           0
     22159 MEMB     179      DOPE     O12      OSLP    -0.570000       15.9994           0
     22160 MEMB     179      DOPE     C1       CTL2    -0.800000E-01   12.0110           0
     22161 MEMB     179      DOPE     HA       HAL2     0.900000E-01   1.00800           0
     22162 MEMB     179      DOPE     HB       HAL2     0.900000E-01   1.00800           0
     22163 MEMB     179      DOPE     C2       CTL1     0.170000       12.0110           0
     22164 MEMB     179      DOPE     HS       HAL1     0.900000E-01   1.00800           0
     22165 MEMB     179      DOPE     O21      OSL     -0.490000       15.9994           0
     22166 MEMB     179      DOPE     C21      CL       0.900000       12.0110           0
     22167 MEMB     179      DOPE     O22      OBL     -0.630000       15.9994           0
     22168 MEMB     179      DOPE     C22      CTL2    -0.220000       12.0110           0
     22169 MEMB     179      DOPE     H2R      HAL2     0.900000E-01   1.00800           0
     22170 MEMB     179      DOPE     H2S      HAL2     0.900000E-01   1.00800           0
     22171 MEMB     179      DOPE     C3       CTL2     0.800000E-01   12.0110           0
     22172 MEMB     179      DOPE     HX       HAL2     0.900000E-01   1.00800           0
     22173 MEMB     179      DOPE     HY       HAL2     0.900000E-01   1.00800           0
     22174 MEMB     179      DOPE     O31      OSL     -0.490000       15.9994           0
     22175 MEMB     179      DOPE     C31      CL       0.900000       12.0110           0
     22176 MEMB     179      DOPE     O32      OBL     -0.630000       15.9994           0
     22177 MEMB     179      DOPE     C32      CTL2    -0.220000       12.0110           0
     22178 MEMB     179      DOPE     H2X      HAL2     0.900000E-01   1.00800           0
     22179 MEMB     179      DOPE     H2Y      HAL2     0.900000E-01   1.00800           0
     22180 MEMB     179      DOPE     C23      CTL2    -0.180000       12.0110           0
     22181 MEMB     179      DOPE     H3R      HAL2     0.900000E-01   1.00800           0
     22182 MEMB     179      DOPE     H3S      HAL2     0.900000E-01   1.00800           0
     22183 MEMB     179      DOPE     C24      CTL2    -0.180000       12.0110           0
     22184 MEMB     179      DOPE     H4R      HAL2     0.900000E-01   1.00800           0
     22185 MEMB     179      DOPE     H4S      HAL2     0.900000E-01   1.00800           0
     22186 MEMB     179      DOPE     C25      CTL2    -0.180000       12.0110           0
     22187 MEMB     179      DOPE     H5R      HAL2     0.900000E-01   1.00800           0
     22188 MEMB     179      DOPE     H5S      HAL2     0.900000E-01   1.00800           0
     22189 MEMB     179      DOPE     C26      CTL2    -0.180000       12.0110           0
     22190 MEMB     179      DOPE     H6R      HAL2     0.900000E-01   1.00800           0
     22191 MEMB     179      DOPE     H6S      HAL2     0.900000E-01   1.00800           0
     22192 MEMB     179      DOPE     C27      CTL2    -0.180000       12.0110           0
     22193 MEMB     179      DOPE     H7R      HAL2     0.900000E-01   1.00800           0
     22194 MEMB     179      DOPE     H7S      HAL2     0.900000E-01   1.00800           0
     22195 MEMB     179      DOPE     C28      CTL2    -0.180000       12.0110           0
     22196 MEMB     179      DOPE     H8R      HAL2     0.900000E-01   1.00800           0
     22197 MEMB     179      DOPE     H8S      HAL2     0.900000E-01   1.00800           0
     22198 MEMB     179      DOPE     C29      CEL1    -0.150000       12.0110           0
     22199 MEMB     179      DOPE     H9R      HEL1     0.150000       1.00800           0
     22200 MEMB     179      DOPE     C210     CEL1    -0.150000       12.0110           0
     22201 MEMB     179      DOPE     H10R     HEL1     0.150000       1.00800           0
     22202 MEMB     179      DOPE     C211     CTL2    -0.180000       12.0110           0
     22203 MEMB     179      DOPE     H11R     HAL2     0.900000E-01   1.00800           0
     22204 MEMB     179      DOPE     H11S     HAL2     0.900000E-01   1.00800           0
     22205 MEMB     179      DOPE     C212     CTL2    -0.180000       12.0110           0
     22206 MEMB     179      DOPE     H12R     HAL2     0.900000E-01   1.00800           0
     22207 MEMB     179      DOPE     H12S     HAL2     0.900000E-01   1.00800           0
     22208 MEMB     179      DOPE     C213     CTL2    -0.180000       12.0110           0
     22209 MEMB     179      DOPE     H13R     HAL2     0.900000E-01   1.00800           0
     22210 MEMB     179      DOPE     H13S     HAL2     0.900000E-01   1.00800           0
     22211 MEMB     179      DOPE     C214     CTL2    -0.180000       12.0110           0
     22212 MEMB     179      DOPE     H14R     HAL2     0.900000E-01   1.00800           0
     22213 MEMB     179      DOPE     H14S     HAL2     0.900000E-01   1.00800           0
     22214 MEMB     179      DOPE     C215     CTL2    -0.180000       12.0110           0
     22215 MEMB     179      DOPE     H15R     HAL2     0.900000E-01   1.00800           0
     22216 MEMB     179      DOPE     H15S     HAL2     0.900000E-01   1.00800           0
     22217 MEMB     179      DOPE     C216     CTL2    -0.180000       12.0110           0
     22218 MEMB     179      DOPE     H16R     HAL2     0.900000E-01   1.00800           0
     22219 MEMB     179      DOPE     H16S     HAL2     0.900000E-01   1.00800           0
     22220 MEMB     179      DOPE     C217     CTL2    -0.180000       12.0110           0
     22221 MEMB     179      DOPE     H17R     HAL2     0.900000E-01   1.00800           0
     22222 MEMB     179      DOPE     H17S     HAL2     0.900000E-01   1.00800           0
     22223 MEMB     179      DOPE     C218     CTL3    -0.270000       12.0110           0
     22224 MEMB     179      DOPE     H18R     HAL3     0.900000E-01   1.00800           0
     22225 MEMB     179      DOPE     H18S     HAL3     0.900000E-01   1.00800           0
     22226 MEMB     179      DOPE     H18T     HAL3     0.900000E-01   1.00800           0
     22227 MEMB     179      DOPE     C33      CTL2    -0.180000       12.0110           0
     22228 MEMB     179      DOPE     H3X      HAL2     0.900000E-01   1.00800           0
     22229 MEMB     179      DOPE     H3Y      HAL2     0.900000E-01   1.00800           0
     22230 MEMB     179      DOPE     C34      CTL2    -0.180000       12.0110           0
     22231 MEMB     179      DOPE     H4X      HAL2     0.900000E-01   1.00800           0
     22232 MEMB     179      DOPE     H4Y      HAL2     0.900000E-01   1.00800           0
     22233 MEMB     179      DOPE     C35      CTL2    -0.180000       12.0110           0
     22234 MEMB     179      DOPE     H5X      HAL2     0.900000E-01   1.00800           0
     22235 MEMB     179      DOPE     H5Y      HAL2     0.900000E-01   1.00800           0
     22236 MEMB     179      DOPE     C36      CTL2    -0.180000       12.0110           0
     22237 MEMB     179      DOPE     H6X      HAL2     0.900000E-01   1.00800           0
     22238 MEMB     179      DOPE     H6Y      HAL2     0.900000E-01   1.00800           0
     22239 MEMB     179      DOPE     C37      CTL2    -0.180000       12.0110           0
     22240 MEMB     179      DOPE     H7X      HAL2     0.900000E-01   1.00800           0
     22241 MEMB     179      DOPE     H7Y      HAL2     0.900000E-01   1.00800           0
     22242 MEMB     179      DOPE     C38      CTL2    -0.180000       12.0110           0
     22243 MEMB     179      DOPE     H8X      HAL2     0.900000E-01   1.00800           0
     22244 MEMB     179      DOPE     H8Y      HAL2     0.900000E-01   1.00800           0
     22245 MEMB     179      DOPE     C39      CEL1    -0.150000       12.0110           0
     22246 MEMB     179      DOPE     H9X      HEL1     0.150000       1.00800           0
     22247 MEMB     179      DOPE     C310     CEL1    -0.150000       12.0110           0
     22248 MEMB     179      DOPE     H10X     HEL1     0.150000       1.00800           0
     22249 MEMB     179      DOPE     C311     CTL2    -0.180000       12.0110           0
     22250 MEMB     179      DOPE     H11X     HAL2     0.900000E-01   1.00800           0
     22251 MEMB     179      DOPE     H11Y     HAL2     0.900000E-01   1.00800           0
     22252 MEMB     179      DOPE     C312     CTL2    -0.180000       12.0110           0
     22253 MEMB     179      DOPE     H12X     HAL2     0.900000E-01   1.00800           0
     22254 MEMB     179      DOPE     H12Y     HAL2     0.900000E-01   1.00800           0
     22255 MEMB     179      DOPE     C313     CTL2    -0.180000       12.0110           0
     22256 MEMB     179      DOPE     H13X     HAL2     0.900000E-01   1.00800           0
     22257 MEMB     179      DOPE     H13Y     HAL2     0.900000E-01   1.00800           0
     22258 MEMB     179      DOPE     C314     CTL2    -0.180000       12.0110           0
     22259 MEMB     179      DOPE     H14X     HAL2     0.900000E-01   1.00800           0
     22260 MEMB     179      DOPE     H14Y     HAL2     0.900000E-01   1.00800           0
     22261 MEMB     179      DOPE     C315     CTL2    -0.180000       12.0110           0
     22262 MEMB     179      DOPE     H15X     HAL2     0.900000E-01   1.00800           0
     22263 MEMB     179      DOPE     H15Y     HAL2     0.900000E-01   1.00800           0
     22264 MEMB     179      DOPE     C316     CTL2    -0.180000       12.0110           0
     22265 MEMB     179      DOPE     H16X     HAL2     0.900000E-01   1.00800           0
     22266 MEMB     179      DOPE     H16Y     HAL2     0.900000E-01   1.00800           0
     22267 MEMB     179      DOPE     C317     CTL2    -0.180000       12.0110           0
     22268 MEMB     179      DOPE     H17X     HAL2     0.900000E-01   1.00800           0
     22269 MEMB     179      DOPE     H17Y     HAL2     0.900000E-01   1.00800           0
     22270 MEMB     179      DOPE     C318     CTL3    -0.270000       12.0110           0
     22271 MEMB     179      DOPE     H18X     HAL3     0.900000E-01   1.00800           0
     22272 MEMB     179      DOPE     H18Y     HAL3     0.900000E-01   1.00800           0
     22273 MEMB     179      DOPE     H18Z     HAL3     0.900000E-01   1.00800           0
     22274 MEMB     180      DOPE     N        NH3L    -0.300000       14.0070           0
     22275 MEMB     180      DOPE     HN1      HCL      0.330000       1.00800           0
     22276 MEMB     180      DOPE     HN2      HCL      0.330000       1.00800           0
     22277 MEMB     180      DOPE     HN3      HCL      0.330000       1.00800           0
     22278 MEMB     180      DOPE     C12      CTL2     0.130000       12.0110           0
     22279 MEMB     180      DOPE     H12A     HAL2     0.900000E-01   1.00800           0
     22280 MEMB     180      DOPE     H12B     HAL2     0.900000E-01   1.00800           0
     22281 MEMB     180      DOPE     C11      CTL2    -0.800000E-01   12.0110           0
     22282 MEMB     180      DOPE     H11A     HAL2     0.900000E-01   1.00800           0
     22283 MEMB     180      DOPE     H11B     HAL2     0.900000E-01   1.00800           0
     22284 MEMB     180      DOPE     P        PL        1.50000       30.9740           0
     22285 MEMB     180      DOPE     O13      O2L     -0.780000       15.9994           0
     22286 MEMB     180      DOPE     O14      O2L     -0.780000       15.9994           0
     22287 MEMB     180      DOPE     O11      OSLP    -0.570000       15.9994           0
     22288 MEMB     180      DOPE     O12      OSLP    -0.570000       15.9994           0
     22289 MEMB     180      DOPE     C1       CTL2    -0.800000E-01   12.0110           0
     22290 MEMB     180      DOPE     HA       HAL2     0.900000E-01   1.00800           0
     22291 MEMB     180      DOPE     HB       HAL2     0.900000E-01   1.00800           0
     22292 MEMB     180      DOPE     C2       CTL1     0.170000       12.0110           0
     22293 MEMB     180      DOPE     HS       HAL1     0.900000E-01   1.00800           0
     22294 MEMB     180      DOPE     O21      OSL     -0.490000       15.9994           0
     22295 MEMB     180      DOPE     C21      CL       0.900000       12.0110           0
     22296 MEMB     180      DOPE     O22      OBL     -0.630000       15.9994           0
     22297 MEMB     180      DOPE     C22      CTL2    -0.220000       12.0110           0
     22298 MEMB     180      DOPE     H2R      HAL2     0.900000E-01   1.00800           0
     22299 MEMB     180      DOPE     H2S      HAL2     0.900000E-01   1.00800           0
     22300 MEMB     180      DOPE     C3       CTL2     0.800000E-01   12.0110           0
     22301 MEMB     180      DOPE     HX       HAL2     0.900000E-01   1.00800           0
     22302 MEMB     180      DOPE     HY       HAL2     0.900000E-01   1.00800           0
     22303 MEMB     180      DOPE     O31      OSL     -0.490000       15.9994           0
     22304 MEMB     180      DOPE     C31      CL       0.900000       12.0110           0
     22305 MEMB     180      DOPE     O32      OBL     -0.630000       15.9994           0
     22306 MEMB     180      DOPE     C32      CTL2    -0.220000       12.0110           0
     22307 MEMB     180      DOPE     H2X      HAL2     0.900000E-01   1.00800           0
     22308 MEMB     180      DOPE     H2Y      HAL2     0.900000E-01   1.00800           0
     22309 MEMB     180      DOPE     C23      CTL2    -0.180000       12.0110           0
     22310 MEMB     180      DOPE     H3R      HAL2     0.900000E-01   1.00800           0
     22311 MEMB     180      DOPE     H3S      HAL2     0.900000E-01   1.00800           0
     22312 MEMB     180      DOPE     C24      CTL2    -0.180000       12.0110           0
     22313 MEMB     180      DOPE     H4R      HAL2     0.900000E-01   1.00800           0
     22314 MEMB     180      DOPE     H4S      HAL2     0.900000E-01   1.00800           0
     22315 MEMB     180      DOPE     C25      CTL2    -0.180000       12.0110           0
     22316 MEMB     180      DOPE     H5R      HAL2     0.900000E-01   1.00800           0
     22317 MEMB     180      DOPE     H5S      HAL2     0.900000E-01   1.00800           0
     22318 MEMB     180      DOPE     C26      CTL2    -0.180000       12.0110           0
     22319 MEMB     180      DOPE     H6R      HAL2     0.900000E-01   1.00800           0
     22320 MEMB     180      DOPE     H6S      HAL2     0.900000E-01   1.00800           0
     22321 MEMB     180      DOPE     C27      CTL2    -0.180000       12.0110           0
     22322 MEMB     180      DOPE     H7R      HAL2     0.900000E-01   1.00800           0
     22323 MEMB     180      DOPE     H7S      HAL2     0.900000E-01   1.00800           0
     22324 MEMB     180      DOPE     C28      CTL2    -0.180000       12.0110           0
     22325 MEMB     180      DOPE     H8R      HAL2     0.900000E-01   1.00800           0
     22326 MEMB     180      DOPE     H8S      HAL2     0.900000E-01   1.00800           0
     22327 MEMB     180      DOPE     C29      CEL1    -0.150000       12.0110           0
     22328 MEMB     180      DOPE     H9R      HEL1     0.150000       1.00800           0
     22329 MEMB     180      DOPE     C210     CEL1    -0.150000       12.0110           0
     22330 MEMB     180      DOPE     H10R     HEL1     0.150000       1.00800           0
     22331 MEMB     180      DOPE     C211     CTL2    -0.180000       12.0110           0
     22332 MEMB     180      DOPE     H11R     HAL2     0.900000E-01   1.00800           0
     22333 MEMB     180      DOPE     H11S     HAL2     0.900000E-01   1.00800           0
     22334 MEMB     180      DOPE     C212     CTL2    -0.180000       12.0110           0
     22335 MEMB     180      DOPE     H12R     HAL2     0.900000E-01   1.00800           0
     22336 MEMB     180      DOPE     H12S     HAL2     0.900000E-01   1.00800           0
     22337 MEMB     180      DOPE     C213     CTL2    -0.180000       12.0110           0
     22338 MEMB     180      DOPE     H13R     HAL2     0.900000E-01   1.00800           0
     22339 MEMB     180      DOPE     H13S     HAL2     0.900000E-01   1.00800           0
     22340 MEMB     180      DOPE     C214     CTL2    -0.180000       12.0110           0
     22341 MEMB     180      DOPE     H14R     HAL2     0.900000E-01   1.00800           0
     22342 MEMB     180      DOPE     H14S     HAL2     0.900000E-01   1.00800           0
     22343 MEMB     180      DOPE     C215     CTL2    -0.180000       12.0110           0
     22344 MEMB     180      DOPE     H15R     HAL2     0.900000E-01   1.00800           0
     22345 MEMB     180      DOPE     H15S     HAL2     0.900000E-01   1.00800           0
     22346 MEMB     180      DOPE     C216     CTL2    -0.180000       12.0110           0
     22347 MEMB     180      DOPE     H16R     HAL2     0.900000E-01   1.00800           0
     22348 MEMB     180      DOPE     H16S     HAL2     0.900000E-01   1.00800           0
     22349 MEMB     180      DOPE     C217     CTL2    -0.180000       12.0110           0
     22350 MEMB     180      DOPE     H17R     HAL2     0.900000E-01   1.00800           0
     22351 MEMB     180      DOPE     H17S     HAL2     0.900000E-01   1.00800           0
     22352 MEMB     180      DOPE     C218     CTL3    -0.270000       12.0110           0
     22353 MEMB     180      DOPE     H18R     HAL3     0.900000E-01   1.00800           0
     22354 MEMB     180      DOPE     H18S     HAL3     0.900000E-01   1.00800           0
     22355 MEMB     180      DOPE     H18T     HAL3     0.900000E-01   1.00800           0
     22356 MEMB     180      DOPE     C33      CTL2    -0.180000       12.0110           0
     22357 MEMB     180      DOPE     H3X      HAL2     0.900000E-01   1.00800           0
     22358 MEMB     180      DOPE     H3Y      HAL2     0.900000E-01   1.00800           0
     22359 MEMB     180      DOPE     C34      CTL2    -0.180000       12.0110           0
     22360 MEMB     180      DOPE     H4X      HAL2     0.900000E-01   1.00800           0
     22361 MEMB     180      DOPE     H4Y      HAL2     0.900000E-01   1.00800           0
     22362 MEMB     180      DOPE     C35      CTL2    -0.180000       12.0110           0
     22363 MEMB     180      DOPE     H5X      HAL2     0.900000E-01   1.00800           0
     22364 MEMB     180      DOPE     H5Y      HAL2     0.900000E-01   1.00800           0
     22365 MEMB     180      DOPE     C36      CTL2    -0.180000       12.0110           0
     22366 MEMB     180      DOPE     H6X      HAL2     0.900000E-01   1.00800           0
     22367 MEMB     180      DOPE     H6Y      HAL2     0.900000E-01   1.00800           0
     22368 MEMB     180      DOPE     C37      CTL2    -0.180000       12.0110           0
     22369 MEMB     180      DOPE     H7X      HAL2     0.900000E-01   1.00800           0
     22370 MEMB     180      DOPE     H7Y      HAL2     0.900000E-01   1.00800           0
     22371 MEMB     180      DOPE     C38      CTL2    -0.180000       12.0110           0
     22372 MEMB     180      DOPE     H8X      HAL2     0.900000E-01   1.00800           0
     22373 MEMB     180      DOPE     H8Y      HAL2     0.900000E-01   1.00800           0
     22374 MEMB     180      DOPE     C39      CEL1    -0.150000       12.0110           0
     22375 MEMB     180      DOPE     H9X      HEL1     0.150000       1.00800           0
     22376 MEMB     180      DOPE     C310     CEL1    -0.150000       12.0110           0
     22377 MEMB     180      DOPE     H10X     HEL1     0.150000       1.00800           0
     22378 MEMB     180      DOPE     C311     CTL2    -0.180000       12.0110           0
     22379 MEMB     180      DOPE     H11X     HAL2     0.900000E-01   1.00800           0
     22380 MEMB     180      DOPE     H11Y     HAL2     0.900000E-01   1.00800           0
     22381 MEMB     180      DOPE     C312     CTL2    -0.180000       12.0110           0
     22382 MEMB     180      DOPE     H12X     HAL2     0.900000E-01   1.00800           0
     22383 MEMB     180      DOPE     H12Y     HAL2     0.900000E-01   1.00800           0
     22384 MEMB     180      DOPE     C313     CTL2    -0.180000       12.0110           0
     22385 MEMB     180      DOPE     H13X     HAL2     0.900000E-01   1.00800           0
     22386 MEMB     180      DOPE     H13Y     HAL2     0.900000E-01   1.00800           0
     22387 MEMB     180      DOPE     C314     CTL2    -0.180000       12.0110           0
     22388 MEMB     180      DOPE     H14X     HAL2     0.900000E-01   1.00800           0
     22389 MEMB     180      DOPE     H14Y     HAL2     0.900000E-01   1.00800           0
     22390 MEMB     180      DOPE     C315     CTL2    -0.180000       12.0110           0
     22391 MEMB     180      DOPE     H15X     HAL2     0.900000E-01   1.00800           0
     22392 MEMB     180      DOPE     H15Y     HAL2     0.900000E-01   1.00800           0
     22393 MEMB     180      DOPE     C316     CTL2    -0.180000       12.0110           0
     22394 MEMB     180      DOPE     H16X     HAL2     0.900000E-01   1.00800           0
     22395 MEMB     180      DOPE     H16Y     HAL2     0.900000E-01   1.00800           0
     22396 MEMB     180      DOPE     C317     CTL2    -0.180000       12.0110           0
     22397 MEMB     180      DOPE     H17X     HAL2     0.900000E-01   1.00800           0
     22398 MEMB     180      DOPE     H17Y     HAL2     0.900000E-01   1.00800           0
     22399 MEMB     180      DOPE     C318     CTL3    -0.270000       12.0110           0
     22400 MEMB     180      DOPE     H18X     HAL3     0.900000E-01   1.00800           0
     22401 MEMB     180      DOPE     H18Y     HAL3     0.900000E-01   1.00800           0
     22402 MEMB     180      DOPE     H18Z     HAL3     0.900000E-01   1.00800           0
     22403 MEMB     181      DOPC     N        NTL     -0.600000       14.0070           0
     22404 MEMB     181      DOPC     C12      CTL2    -0.100000       12.0110           0
     22405 MEMB     181      DOPC     H12A     HL       0.250000       1.00800           0
     22406 MEMB     181      DOPC     H12B     HL       0.250000       1.00800           0
     22407 MEMB     181      DOPC     C13      CTL5    -0.350000       12.0110           0
     22408 MEMB     181      DOPC     H13A     HL       0.250000       1.00800           0
     22409 MEMB     181      DOPC     H13B     HL       0.250000       1.00800           0
     22410 MEMB     181      DOPC     H13C     HL       0.250000       1.00800           0
     22411 MEMB     181      DOPC     C14      CTL5    -0.350000       12.0110           0
     22412 MEMB     181      DOPC     H14A     HL       0.250000       1.00800           0
     22413 MEMB     181      DOPC     H14B     HL       0.250000       1.00800           0
     22414 MEMB     181      DOPC     H14C     HL       0.250000       1.00800           0
     22415 MEMB     181      DOPC     C15      CTL5    -0.350000       12.0110           0
     22416 MEMB     181      DOPC     H15A     HL       0.250000       1.00800           0
     22417 MEMB     181      DOPC     H15B     HL       0.250000       1.00800           0
     22418 MEMB     181      DOPC     H15C     HL       0.250000       1.00800           0
     22419 MEMB     181      DOPC     C11      CTL2    -0.800000E-01   12.0110           0
     22420 MEMB     181      DOPC     H11A     HAL2     0.900000E-01   1.00800           0
     22421 MEMB     181      DOPC     H11B     HAL2     0.900000E-01   1.00800           0
     22422 MEMB     181      DOPC     P        PL        1.50000       30.9740           0
     22423 MEMB     181      DOPC     O13      O2L     -0.780000       15.9994           0
     22424 MEMB     181      DOPC     O14      O2L     -0.780000       15.9994           0
     22425 MEMB     181      DOPC     O12      OSLP    -0.570000       15.9994           0
     22426 MEMB     181      DOPC     O11      OSLP    -0.570000       15.9994           0
     22427 MEMB     181      DOPC     C1       CTL2    -0.800000E-01   12.0110           0
     22428 MEMB     181      DOPC     HA       HAL2     0.900000E-01   1.00800           0
     22429 MEMB     181      DOPC     HB       HAL2     0.900000E-01   1.00800           0
     22430 MEMB     181      DOPC     C2       CTL1     0.170000       12.0110           0
     22431 MEMB     181      DOPC     HS       HAL1     0.900000E-01   1.00800           0
     22432 MEMB     181      DOPC     O21      OSL     -0.490000       15.9994           0
     22433 MEMB     181      DOPC     C21      CL       0.900000       12.0110           0
     22434 MEMB     181      DOPC     O22      OBL     -0.630000       15.9994           0
     22435 MEMB     181      DOPC     C22      CTL2    -0.220000       12.0110           0
     22436 MEMB     181      DOPC     H2R      HAL2     0.900000E-01   1.00800           0
     22437 MEMB     181      DOPC     H2S      HAL2     0.900000E-01   1.00800           0
     22438 MEMB     181      DOPC     C3       CTL2     0.800000E-01   12.0110           0
     22439 MEMB     181      DOPC     HX       HAL2     0.900000E-01   1.00800           0
     22440 MEMB     181      DOPC     HY       HAL2     0.900000E-01   1.00800           0
     22441 MEMB     181      DOPC     O31      OSL     -0.490000       15.9994           0
     22442 MEMB     181      DOPC     C31      CL       0.900000       12.0110           0
     22443 MEMB     181      DOPC     O32      OBL     -0.630000       15.9994           0
     22444 MEMB     181      DOPC     C32      CTL2    -0.220000       12.0110           0
     22445 MEMB     181      DOPC     H2X      HAL2     0.900000E-01   1.00800           0
     22446 MEMB     181      DOPC     H2Y      HAL2     0.900000E-01   1.00800           0
     22447 MEMB     181      DOPC     C23      CTL2    -0.180000       12.0110           0
     22448 MEMB     181      DOPC     H3R      HAL2     0.900000E-01   1.00800           0
     22449 MEMB     181      DOPC     H3S      HAL2     0.900000E-01   1.00800           0
     22450 MEMB     181      DOPC     C24      CTL2    -0.180000       12.0110           0
     22451 MEMB     181      DOPC     H4R      HAL2     0.900000E-01   1.00800           0
     22452 MEMB     181      DOPC     H4S      HAL2     0.900000E-01   1.00800           0
     22453 MEMB     181      DOPC     C25      CTL2    -0.180000       12.0110           0
     22454 MEMB     181      DOPC     H5R      HAL2     0.900000E-01   1.00800           0
     22455 MEMB     181      DOPC     H5S      HAL2     0.900000E-01   1.00800           0
     22456 MEMB     181      DOPC     C26      CTL2    -0.180000       12.0110           0
     22457 MEMB     181      DOPC     H6R      HAL2     0.900000E-01   1.00800           0
     22458 MEMB     181      DOPC     H6S      HAL2     0.900000E-01   1.00800           0
     22459 MEMB     181      DOPC     C27      CTL2    -0.180000       12.0110           0
     22460 MEMB     181      DOPC     H7R      HAL2     0.900000E-01   1.00800           0
     22461 MEMB     181      DOPC     H7S      HAL2     0.900000E-01   1.00800           0
     22462 MEMB     181      DOPC     C28      CTL2    -0.180000       12.0110           0
     22463 MEMB     181      DOPC     H8R      HAL2     0.900000E-01   1.00800           0
     22464 MEMB     181      DOPC     H8S      HAL2     0.900000E-01   1.00800           0
     22465 MEMB     181      DOPC     C29      CEL1    -0.150000       12.0110           0
     22466 MEMB     181      DOPC     H9R      HEL1     0.150000       1.00800           0
     22467 MEMB     181      DOPC     C210     CEL1    -0.150000       12.0110           0
     22468 MEMB     181      DOPC     H10R     HEL1     0.150000       1.00800           0
     22469 MEMB     181      DOPC     C211     CTL2    -0.180000       12.0110           0
     22470 MEMB     181      DOPC     H11R     HAL2     0.900000E-01   1.00800           0
     22471 MEMB     181      DOPC     H11S     HAL2     0.900000E-01   1.00800           0
     22472 MEMB     181      DOPC     C212     CTL2    -0.180000       12.0110           0
     22473 MEMB     181      DOPC     H12R     HAL2     0.900000E-01   1.00800           0
     22474 MEMB     181      DOPC     H12S     HAL2     0.900000E-01   1.00800           0
     22475 MEMB     181      DOPC     C213     CTL2    -0.180000       12.0110           0
     22476 MEMB     181      DOPC     H13R     HAL2     0.900000E-01   1.00800           0
     22477 MEMB     181      DOPC     H13S     HAL2     0.900000E-01   1.00800           0
     22478 MEMB     181      DOPC     C214     CTL2    -0.180000       12.0110           0
     22479 MEMB     181      DOPC     H14R     HAL2     0.900000E-01   1.00800           0
     22480 MEMB     181      DOPC     H14S     HAL2     0.900000E-01   1.00800           0
     22481 MEMB     181      DOPC     C215     CTL2    -0.180000       12.0110           0
     22482 MEMB     181      DOPC     H15R     HAL2     0.900000E-01   1.00800           0
     22483 MEMB     181      DOPC     H15S     HAL2     0.900000E-01   1.00800           0
     22484 MEMB     181      DOPC     C216     CTL2    -0.180000       12.0110           0
     22485 MEMB     181      DOPC     H16R     HAL2     0.900000E-01   1.00800           0
     22486 MEMB     181      DOPC     H16S     HAL2     0.900000E-01   1.00800           0
     22487 MEMB     181      DOPC     C217     CTL2    -0.180000       12.0110           0
     22488 MEMB     181      DOPC     H17R     HAL2     0.900000E-01   1.00800           0
     22489 MEMB     181      DOPC     H17S     HAL2     0.900000E-01   1.00800           0
     22490 MEMB     181      DOPC     C218     CTL3    -0.270000       12.0110           0
     22491 MEMB     181      DOPC     H18R     HAL3     0.900000E-01   1.00800           0
     22492 MEMB     181      DOPC     H18S     HAL3     0.900000E-01   1.00800           0
     22493 MEMB     181      DOPC     H18T     HAL3     0.900000E-01   1.00800           0
     22494 MEMB     181      DOPC     C33      CTL2    -0.180000       12.0110           0
     22495 MEMB     181      DOPC     H3X      HAL2     0.900000E-01   1.00800           0
     22496 MEMB     181      DOPC     H3Y      HAL2     0.900000E-01   1.00800           0
     22497 MEMB     181      DOPC     C34      CTL2    -0.180000       12.0110           0
     22498 MEMB     181      DOPC     H4X      HAL2     0.900000E-01   1.00800           0
     22499 MEMB     181      DOPC     H4Y      HAL2     0.900000E-01   1.00800           0
     22500 MEMB     181      DOPC     C35      CTL2    -0.180000       12.0110           0
     22501 MEMB     181      DOPC     H5X      HAL2     0.900000E-01   1.00800           0
     22502 MEMB     181      DOPC     H5Y      HAL2     0.900000E-01   1.00800           0
     22503 MEMB     181      DOPC     C36      CTL2    -0.180000       12.0110           0
     22504 MEMB     181      DOPC     H6X      HAL2     0.900000E-01   1.00800           0
     22505 MEMB     181      DOPC     H6Y      HAL2     0.900000E-01   1.00800           0
     22506 MEMB     181      DOPC     C37      CTL2    -0.180000       12.0110           0
     22507 MEMB     181      DOPC     H7X      HAL2     0.900000E-01   1.00800           0
     22508 MEMB     181      DOPC     H7Y      HAL2     0.900000E-01   1.00800           0
     22509 MEMB     181      DOPC     C38      CTL2    -0.180000       12.0110           0
     22510 MEMB     181      DOPC     H8X      HAL2     0.900000E-01   1.00800           0
     22511 MEMB     181      DOPC     H8Y      HAL2     0.900000E-01   1.00800           0
     22512 MEMB     181      DOPC     C39      CEL1    -0.150000       12.0110           0
     22513 MEMB     181      DOPC     H9X      HEL1     0.150000       1.00800           0
     22514 MEMB     181      DOPC     C310     CEL1    -0.150000       12.0110           0
     22515 MEMB     181      DOPC     H10X     HEL1     0.150000       1.00800           0
     22516 MEMB     181      DOPC     C311     CTL2    -0.180000       12.0110           0
     22517 MEMB     181      DOPC     H11X     HAL2     0.900000E-01   1.00800           0
     22518 MEMB     181      DOPC     H11Y     HAL2     0.900000E-01   1.00800           0
     22519 MEMB     181      DOPC     C312     CTL2    -0.180000       12.0110           0
     22520 MEMB     181      DOPC     H12X     HAL2     0.900000E-01   1.00800           0
     22521 MEMB     181      DOPC     H12Y     HAL2     0.900000E-01   1.00800           0
     22522 MEMB     181      DOPC     C313     CTL2    -0.180000       12.0110           0
     22523 MEMB     181      DOPC     H13X     HAL2     0.900000E-01   1.00800           0
     22524 MEMB     181      DOPC     H13Y     HAL2     0.900000E-01   1.00800           0
     22525 MEMB     181      DOPC     C314     CTL2    -0.180000       12.0110           0
     22526 MEMB     181      DOPC     H14X     HAL2     0.900000E-01   1.00800           0
     22527 MEMB     181      DOPC     H14Y     HAL2     0.900000E-01   1.00800           0
     22528 MEMB     181      DOPC     C315     CTL2    -0.180000       12.0110           0
     22529 MEMB     181      DOPC     H15X     HAL2     0.900000E-01   1.00800           0
     22530 MEMB     181      DOPC     H15Y     HAL2     0.900000E-01   1.00800           0
     22531 MEMB     181      DOPC     C316     CTL2    -0.180000       12.0110           0
     22532 MEMB     181      DOPC     H16X     HAL2     0.900000E-01   1.00800           0
     22533 MEMB     181      DOPC     H16Y     HAL2     0.900000E-01   1.00800           0
     22534 MEMB     181      DOPC     C317     CTL2    -0.180000       12.0110           0
     22535 MEMB     181      DOPC     H17X     HAL2     0.900000E-01   1.00800           0
     22536 MEMB     181      DOPC     H17Y     HAL2     0.900000E-01   1.00800           0
     22537 MEMB     181      DOPC     C318     CTL3    -0.270000       12.0110           0
     22538 MEMB     181      DOPC     H18X     HAL3     0.900000E-01   1.00800           0
     22539 MEMB     181      DOPC     H18Y     HAL3     0.900000E-01   1.00800           0
     22540 MEMB     181      DOPC     H18Z     HAL3     0.900000E-01   1.00800           0
     22541 MEMB     182      DOPC     N        NTL     -0.600000       14.0070           0
     22542 MEMB     182      DOPC     C12      CTL2    -0.100000       12.0110           0
     22543 MEMB     182      DOPC     H12A     HL       0.250000       1.00800           0
     22544 MEMB     182      DOPC     H12B     HL       0.250000       1.00800           0
     22545 MEMB     182      DOPC     C13      CTL5    -0.350000       12.0110           0
     22546 MEMB     182      DOPC     H13A     HL       0.250000       1.00800           0
     22547 MEMB     182      DOPC     H13B     HL       0.250000       1.00800           0
     22548 MEMB     182      DOPC     H13C     HL       0.250000       1.00800           0
     22549 MEMB     182      DOPC     C14      CTL5    -0.350000       12.0110           0
     22550 MEMB     182      DOPC     H14A     HL       0.250000       1.00800           0
     22551 MEMB     182      DOPC     H14B     HL       0.250000       1.00800           0
     22552 MEMB     182      DOPC     H14C     HL       0.250000       1.00800           0
     22553 MEMB     182      DOPC     C15      CTL5    -0.350000       12.0110           0
     22554 MEMB     182      DOPC     H15A     HL       0.250000       1.00800           0
     22555 MEMB     182      DOPC     H15B     HL       0.250000       1.00800           0
     22556 MEMB     182      DOPC     H15C     HL       0.250000       1.00800           0
     22557 MEMB     182      DOPC     C11      CTL2    -0.800000E-01   12.0110           0
     22558 MEMB     182      DOPC     H11A     HAL2     0.900000E-01   1.00800           0
     22559 MEMB     182      DOPC     H11B     HAL2     0.900000E-01   1.00800           0
     22560 MEMB     182      DOPC     P        PL        1.50000       30.9740           0
     22561 MEMB     182      DOPC     O13      O2L     -0.780000       15.9994           0
     22562 MEMB     182      DOPC     O14      O2L     -0.780000       15.9994           0
     22563 MEMB     182      DOPC     O12      OSLP    -0.570000       15.9994           0
     22564 MEMB     182      DOPC     O11      OSLP    -0.570000       15.9994           0
     22565 MEMB     182      DOPC     C1       CTL2    -0.800000E-01   12.0110           0
     22566 MEMB     182      DOPC     HA       HAL2     0.900000E-01   1.00800           0
     22567 MEMB     182      DOPC     HB       HAL2     0.900000E-01   1.00800           0
     22568 MEMB     182      DOPC     C2       CTL1     0.170000       12.0110           0
     22569 MEMB     182      DOPC     HS       HAL1     0.900000E-01   1.00800           0
     22570 MEMB     182      DOPC     O21      OSL     -0.490000       15.9994           0
     22571 MEMB     182      DOPC     C21      CL       0.900000       12.0110           0
     22572 MEMB     182      DOPC     O22      OBL     -0.630000       15.9994           0
     22573 MEMB     182      DOPC     C22      CTL2    -0.220000       12.0110           0
     22574 MEMB     182      DOPC     H2R      HAL2     0.900000E-01   1.00800           0
     22575 MEMB     182      DOPC     H2S      HAL2     0.900000E-01   1.00800           0
     22576 MEMB     182      DOPC     C3       CTL2     0.800000E-01   12.0110           0
     22577 MEMB     182      DOPC     HX       HAL2     0.900000E-01   1.00800           0
     22578 MEMB     182      DOPC     HY       HAL2     0.900000E-01   1.00800           0
     22579 MEMB     182      DOPC     O31      OSL     -0.490000       15.9994           0
     22580 MEMB     182      DOPC     C31      CL       0.900000       12.0110           0
     22581 MEMB     182      DOPC     O32      OBL     -0.630000       15.9994           0
     22582 MEMB     182      DOPC     C32      CTL2    -0.220000       12.0110           0
     22583 MEMB     182      DOPC     H2X      HAL2     0.900000E-01   1.00800           0
     22584 MEMB     182      DOPC     H2Y      HAL2     0.900000E-01   1.00800           0
     22585 MEMB     182      DOPC     C23      CTL2    -0.180000       12.0110           0
     22586 MEMB     182      DOPC     H3R      HAL2     0.900000E-01   1.00800           0
     22587 MEMB     182      DOPC     H3S      HAL2     0.900000E-01   1.00800           0
     22588 MEMB     182      DOPC     C24      CTL2    -0.180000       12.0110           0
     22589 MEMB     182      DOPC     H4R      HAL2     0.900000E-01   1.00800           0
     22590 MEMB     182      DOPC     H4S      HAL2     0.900000E-01   1.00800           0
     22591 MEMB     182      DOPC     C25      CTL2    -0.180000       12.0110           0
     22592 MEMB     182      DOPC     H5R      HAL2     0.900000E-01   1.00800           0
     22593 MEMB     182      DOPC     H5S      HAL2     0.900000E-01   1.00800           0
     22594 MEMB     182      DOPC     C26      CTL2    -0.180000       12.0110           0
     22595 MEMB     182      DOPC     H6R      HAL2     0.900000E-01   1.00800           0
     22596 MEMB     182      DOPC     H6S      HAL2     0.900000E-01   1.00800           0
     22597 MEMB     182      DOPC     C27      CTL2    -0.180000       12.0110           0
     22598 MEMB     182      DOPC     H7R      HAL2     0.900000E-01   1.00800           0
     22599 MEMB     182      DOPC     H7S      HAL2     0.900000E-01   1.00800           0
     22600 MEMB     182      DOPC     C28      CTL2    -0.180000       12.0110           0
     22601 MEMB     182      DOPC     H8R      HAL2     0.900000E-01   1.00800           0
     22602 MEMB     182      DOPC     H8S      HAL2     0.900000E-01   1.00800           0
     22603 MEMB     182      DOPC     C29      CEL1    -0.150000       12.0110           0
     22604 MEMB     182      DOPC     H9R      HEL1     0.150000       1.00800           0
     22605 MEMB     182      DOPC     C210     CEL1    -0.150000       12.0110           0
     22606 MEMB     182      DOPC     H10R     HEL1     0.150000       1.00800           0
     22607 MEMB     182      DOPC     C211     CTL2    -0.180000       12.0110           0
     22608 MEMB     182      DOPC     H11R     HAL2     0.900000E-01   1.00800           0
     22609 MEMB     182      DOPC     H11S     HAL2     0.900000E-01   1.00800           0
     22610 MEMB     182      DOPC     C212     CTL2    -0.180000       12.0110           0
     22611 MEMB     182      DOPC     H12R     HAL2     0.900000E-01   1.00800           0
     22612 MEMB     182      DOPC     H12S     HAL2     0.900000E-01   1.00800           0
     22613 MEMB     182      DOPC     C213     CTL2    -0.180000       12.0110           0
     22614 MEMB     182      DOPC     H13R     HAL2     0.900000E-01   1.00800           0
     22615 MEMB     182      DOPC     H13S     HAL2     0.900000E-01   1.00800           0
     22616 MEMB     182      DOPC     C214     CTL2    -0.180000       12.0110           0
     22617 MEMB     182      DOPC     H14R     HAL2     0.900000E-01   1.00800           0
     22618 MEMB     182      DOPC     H14S     HAL2     0.900000E-01   1.00800           0
     22619 MEMB     182      DOPC     C215     CTL2    -0.180000       12.0110           0
     22620 MEMB     182      DOPC     H15R     HAL2     0.900000E-01   1.00800           0
     22621 MEMB     182      DOPC     H15S     HAL2     0.900000E-01   1.00800           0
     22622 MEMB     182      DOPC     C216     CTL2    -0.180000       12.0110           0
     22623 MEMB     182      DOPC     H16R     HAL2     0.900000E-01   1.00800           0
     22624 MEMB     182      DOPC     H16S     HAL2     0.900000E-01   1.00800           0
     22625 MEMB     182      DOPC     C217     CTL2    -0.180000       12.0110           0
     22626 MEMB     182      DOPC     H17R     HAL2     0.900000E-01   1.00800           0
     22627 MEMB     182      DOPC     H17S     HAL2     0.900000E-01   1.00800           0
     22628 MEMB     182      DOPC     C218     CTL3    -0.270000       12.0110           0
     22629 MEMB     182      DOPC     H18R     HAL3     0.900000E-01   1.00800           0
     22630 MEMB     182      DOPC     H18S     HAL3     0.900000E-01   1.00800           0
     22631 MEMB     182      DOPC     H18T     HAL3     0.900000E-01   1.00800           0
     22632 MEMB     182      DOPC     C33      CTL2    -0.180000       12.0110           0
     22633 MEMB     182      DOPC     H3X      HAL2     0.900000E-01   1.00800           0
     22634 MEMB     182      DOPC     H3Y      HAL2     0.900000E-01   1.00800           0
     22635 MEMB     182      DOPC     C34      CTL2    -0.180000       12.0110           0
     22636 MEMB     182      DOPC     H4X      HAL2     0.900000E-01   1.00800           0
     22637 MEMB     182      DOPC     H4Y      HAL2     0.900000E-01   1.00800           0
     22638 MEMB     182      DOPC     C35      CTL2    -0.180000       12.0110           0
     22639 MEMB     182      DOPC     H5X      HAL2     0.900000E-01   1.00800           0
     22640 MEMB     182      DOPC     H5Y      HAL2     0.900000E-01   1.00800           0
     22641 MEMB     182      DOPC     C36      CTL2    -0.180000       12.0110           0
     22642 MEMB     182      DOPC     H6X      HAL2     0.900000E-01   1.00800           0
     22643 MEMB     182      DOPC     H6Y      HAL2     0.900000E-01   1.00800           0
     22644 MEMB     182      DOPC     C37      CTL2    -0.180000       12.0110           0
     22645 MEMB     182      DOPC     H7X      HAL2     0.900000E-01   1.00800           0
     22646 MEMB     182      DOPC     H7Y      HAL2     0.900000E-01   1.00800           0
     22647 MEMB     182      DOPC     C38      CTL2    -0.180000       12.0110           0
     22648 MEMB     182      DOPC     H8X      HAL2     0.900000E-01   1.00800           0
     22649 MEMB     182      DOPC     H8Y      HAL2     0.900000E-01   1.00800           0
     22650 MEMB     182      DOPC     C39      CEL1    -0.150000       12.0110           0
     22651 MEMB     182      DOPC     H9X      HEL1     0.150000       1.00800           0
     22652 MEMB     182      DOPC     C310     CEL1    -0.150000       12.0110           0
     22653 MEMB     182      DOPC     H10X     HEL1     0.150000       1.00800           0
     22654 MEMB     182      DOPC     C311     CTL2    -0.180000       12.0110           0
     22655 MEMB     182      DOPC     H11X     HAL2     0.900000E-01   1.00800           0
     22656 MEMB     182      DOPC     H11Y     HAL2     0.900000E-01   1.00800           0
     22657 MEMB     182      DOPC     C312     CTL2    -0.180000       12.0110           0
     22658 MEMB     182      DOPC     H12X     HAL2     0.900000E-01   1.00800           0
     22659 MEMB     182      DOPC     H12Y     HAL2     0.900000E-01   1.00800           0
     22660 MEMB     182      DOPC     C313     CTL2    -0.180000       12.0110           0
     22661 MEMB     182      DOPC     H13X     HAL2     0.900000E-01   1.00800           0
     22662 MEMB     182      DOPC     H13Y     HAL2     0.900000E-01   1.00800           0
     22663 MEMB     182      DOPC     C314     CTL2    -0.180000       12.0110           0
     22664 MEMB     182      DOPC     H14X     HAL2     0.900000E-01   1.00800           0
     22665 MEMB     182      DOPC     H14Y     HAL2     0.900000E-01   1.00800           0
     22666 MEMB     182      DOPC     C315     CTL2    -0.180000       12.0110           0
     22667 MEMB     182      DOPC     H15X     HAL2     0.900000E-01   1.00800           0
     22668 MEMB     182      DOPC     H15Y     HAL2     0.900000E-01   1.00800           0
     22669 MEMB     182      DOPC     C316     CTL2    -0.180000       12.0110           0
     22670 MEMB     182      DOPC     H16X     HAL2     0.900000E-01   1.00800           0
     22671 MEMB     182      DOPC     H16Y     HAL2     0.900000E-01   1.00800           0
     22672 MEMB     182      DOPC     C317     CTL2    -0.180000       12.0110           0
     22673 MEMB     182      DOPC     H17X     HAL2     0.900000E-01   1.00800           0
     22674 MEMB     182      DOPC     H17Y     HAL2     0.900000E-01   1.00800           0
     22675 MEMB     182      DOPC     C318     CTL3    -0.270000       12.0110           0
     22676 MEMB     182      DOPC     H18X     HAL3     0.900000E-01   1.00800           0
     22677 MEMB     182      DOPC     H18Y     HAL3     0.900000E-01   1.00800           0
     22678 MEMB     182      DOPC     H18Z     HAL3     0.900000E-01   1.00800           0
     22679 MEMB     183      CHL1     C3       CRL1     0.140000       12.0110           0
     22680 MEMB     183      CHL1     H3       HGA1     0.900000E-01   1.00800           0
     22681 MEMB     183      CHL1     O3       OHL     -0.660000       15.9994           0
     22682 MEMB     183      CHL1     H3'      HOL      0.430000       1.00800           0
     22683 MEMB     183      CHL1     C4       CRL2    -0.180000       12.0110           0
     22684 MEMB     183      CHL1     H4A      HGA2     0.900000E-01   1.00800           0
     22685 MEMB     183      CHL1     H4B      HGA2     0.900000E-01   1.00800           0
     22686 MEMB     183      CHL1     C5       CEL1      0.00000       12.0110           0
     22687 MEMB     183      CHL1     C6       CEL1    -0.150000       12.0110           0
     22688 MEMB     183      CHL1     H6       HEL1     0.150000       1.00800           0
     22689 MEMB     183      CHL1     C7       CRL2    -0.180000       12.0110           0
     22690 MEMB     183      CHL1     H7A      HGA2     0.900000E-01   1.00800           0
     22691 MEMB     183      CHL1     H7B      HGA2     0.900000E-01   1.00800           0
     22692 MEMB     183      CHL1     C8       CRL1    -0.900000E-01   12.0110           0
     22693 MEMB     183      CHL1     H8       HGA1     0.900000E-01   1.00800           0
     22694 MEMB     183      CHL1     C14      CRL1    -0.900000E-01   12.0110           0
     22695 MEMB     183      CHL1     H14      HGA1     0.900000E-01   1.00800           0
     22696 MEMB     183      CHL1     C15      CRL2    -0.180000       12.0110           0
     22697 MEMB     183      CHL1     H15A     HGA2     0.900000E-01   1.00800           0
     22698 MEMB     183      CHL1     H15B     HGA2     0.900000E-01   1.00800           0
     22699 MEMB     183      CHL1     C16      CRL2    -0.180000       12.0110           0
     22700 MEMB     183      CHL1     H16A     HGA2     0.900000E-01   1.00800           0
     22701 MEMB     183      CHL1     H16B     HGA2     0.900000E-01   1.00800           0
     22702 MEMB     183      CHL1     C17      CRL1    -0.900000E-01   12.0110           0
     22703 MEMB     183      CHL1     H17      HGA1     0.900000E-01   1.00800           0
     22704 MEMB     183      CHL1     C13      CRL1      0.00000       12.0110           0
     22705 MEMB     183      CHL1     C18      CTL3    -0.270000       12.0110           0
     22706 MEMB     183      CHL1     H18A     HAL3     0.900000E-01   1.00800           0
     22707 MEMB     183      CHL1     H18B     HAL3     0.900000E-01   1.00800           0
     22708 MEMB     183      CHL1     H18C     HAL3     0.900000E-01   1.00800           0
     22709 MEMB     183      CHL1     C12      CRL2    -0.180000       12.0110           0
     22710 MEMB     183      CHL1     H12A     HGA2     0.900000E-01   1.00800           0
     22711 MEMB     183      CHL1     H12B     HGA2     0.900000E-01   1.00800           0
     22712 MEMB     183      CHL1     C11      CRL2    -0.180000       12.0110           0
     22713 MEMB     183      CHL1     H11A     HGA2     0.900000E-01   1.00800           0
     22714 MEMB     183      CHL1     H11B     HGA2     0.900000E-01   1.00800           0
     22715 MEMB     183      CHL1     C9       CRL1    -0.900000E-01   12.0110           0
     22716 MEMB     183      CHL1     H9       HGA1     0.900000E-01   1.00800           0
     22717 MEMB     183      CHL1     C10      CRL1      0.00000       12.0110           0
     22718 MEMB     183      CHL1     C19      CTL3    -0.270000       12.0110           0
     22719 MEMB     183      CHL1     H19A     HAL3     0.900000E-01   1.00800           0
     22720 MEMB     183      CHL1     H19B     HAL3     0.900000E-01   1.00800           0
     22721 MEMB     183      CHL1     H19C     HAL3     0.900000E-01   1.00800           0
     22722 MEMB     183      CHL1     C1       CRL2    -0.180000       12.0110           0
     22723 MEMB     183      CHL1     H1A      HGA2     0.900000E-01   1.00800           0
     22724 MEMB     183      CHL1     H1B      HGA2     0.900000E-01   1.00800           0
     22725 MEMB     183      CHL1     C2       CRL2    -0.180000       12.0110           0
     22726 MEMB     183      CHL1     H2A      HGA2     0.900000E-01   1.00800           0
     22727 MEMB     183      CHL1     H2B      HGA2     0.900000E-01   1.00800           0
     22728 MEMB     183      CHL1     C20      CTL1    -0.900000E-01   12.0110           0
     22729 MEMB     183      CHL1     H20      HAL1     0.900000E-01   1.00800           0
     22730 MEMB     183      CHL1     C21      CTL3    -0.270000       12.0110           0
     22731 MEMB     183      CHL1     H21A     HAL3     0.900000E-01   1.00800           0
     22732 MEMB     183      CHL1     H21B     HAL3     0.900000E-01   1.00800           0
     22733 MEMB     183      CHL1     H21C     HAL3     0.900000E-01   1.00800           0
     22734 MEMB     183      CHL1     C22      CTL2    -0.180000       12.0110           0
     22735 MEMB     183      CHL1     H22A     HAL2     0.900000E-01   1.00800           0
     22736 MEMB     183      CHL1     H22B     HAL2     0.900000E-01   1.00800           0
     22737 MEMB     183      CHL1     C23      CTL2    -0.180000       12.0110           0
     22738 MEMB     183      CHL1     H23A     HAL2     0.900000E-01   1.00800           0
     22739 MEMB     183      CHL1     H23B     HAL2     0.900000E-01   1.00800           0
     22740 MEMB     183      CHL1     C24      CTL2    -0.180000       12.0110           0
     22741 MEMB     183      CHL1     H24A     HAL2     0.900000E-01   1.00800           0
     22742 MEMB     183      CHL1     H24B     HAL2     0.900000E-01   1.00800           0
     22743 MEMB     183      CHL1     C25      CTL1    -0.900000E-01   12.0110           0
     22744 MEMB     183      CHL1     H25      HAL1     0.900000E-01   1.00800           0
     22745 MEMB     183      CHL1     C26      CTL3    -0.270000       12.0110           0
     22746 MEMB     183      CHL1     H26A     HAL3     0.900000E-01   1.00800           0
     22747 MEMB     183      CHL1     H26B     HAL3     0.900000E-01   1.00800           0
     22748 MEMB     183      CHL1     H26C     HAL3     0.900000E-01   1.00800           0
     22749 MEMB     183      CHL1     C27      CTL3    -0.270000       12.0110           0
     22750 MEMB     183      CHL1     H27A     HAL3     0.900000E-01   1.00800           0
     22751 MEMB     183      CHL1     H27B     HAL3     0.900000E-01   1.00800           0
     22752 MEMB     183      CHL1     H27C     HAL3     0.900000E-01   1.00800           0
     22753 MEMB     184      DOPC     N        NTL     -0.600000       14.0070           0
     22754 MEMB     184      DOPC     C12      CTL2    -0.100000       12.0110           0
     22755 MEMB     184      DOPC     H12A     HL       0.250000       1.00800           0
     22756 MEMB     184      DOPC     H12B     HL       0.250000       1.00800           0
     22757 MEMB     184      DOPC     C13      CTL5    -0.350000       12.0110           0
     22758 MEMB     184      DOPC     H13A     HL       0.250000       1.00800           0
     22759 MEMB     184      DOPC     H13B     HL       0.250000       1.00800           0
     22760 MEMB     184      DOPC     H13C     HL       0.250000       1.00800           0
     22761 MEMB     184      DOPC     C14      CTL5    -0.350000       12.0110           0
     22762 MEMB     184      DOPC     H14A     HL       0.250000       1.00800           0
     22763 MEMB     184      DOPC     H14B     HL       0.250000       1.00800           0
     22764 MEMB     184      DOPC     H14C     HL       0.250000       1.00800           0
     22765 MEMB     184      DOPC     C15      CTL5    -0.350000       12.0110           0
     22766 MEMB     184      DOPC     H15A     HL       0.250000       1.00800           0
     22767 MEMB     184      DOPC     H15B     HL       0.250000       1.00800           0
     22768 MEMB     184      DOPC     H15C     HL       0.250000       1.00800           0
     22769 MEMB     184      DOPC     C11      CTL2    -0.800000E-01   12.0110           0
     22770 MEMB     184      DOPC     H11A     HAL2     0.900000E-01   1.00800           0
     22771 MEMB     184      DOPC     H11B     HAL2     0.900000E-01   1.00800           0
     22772 MEMB     184      DOPC     P        PL        1.50000       30.9740           0
     22773 MEMB     184      DOPC     O13      O2L     -0.780000       15.9994           0
     22774 MEMB     184      DOPC     O14      O2L     -0.780000       15.9994           0
     22775 MEMB     184      DOPC     O12      OSLP    -0.570000       15.9994           0
     22776 MEMB     184      DOPC     O11      OSLP    -0.570000       15.9994           0
     22777 MEMB     184      DOPC     C1       CTL2    -0.800000E-01   12.0110           0
     22778 MEMB     184      DOPC     HA       HAL2     0.900000E-01   1.00800           0
     22779 MEMB     184      DOPC     HB       HAL2     0.900000E-01   1.00800           0
     22780 MEMB     184      DOPC     C2       CTL1     0.170000       12.0110           0
     22781 MEMB     184      DOPC     HS       HAL1     0.900000E-01   1.00800           0
     22782 MEMB     184      DOPC     O21      OSL     -0.490000       15.9994           0
     22783 MEMB     184      DOPC     C21      CL       0.900000       12.0110           0
     22784 MEMB     184      DOPC     O22      OBL     -0.630000       15.9994           0
     22785 MEMB     184      DOPC     C22      CTL2    -0.220000       12.0110           0
     22786 MEMB     184      DOPC     H2R      HAL2     0.900000E-01   1.00800           0
     22787 MEMB     184      DOPC     H2S      HAL2     0.900000E-01   1.00800           0
     22788 MEMB     184      DOPC     C3       CTL2     0.800000E-01   12.0110           0
     22789 MEMB     184      DOPC     HX       HAL2     0.900000E-01   1.00800           0
     22790 MEMB     184      DOPC     HY       HAL2     0.900000E-01   1.00800           0
     22791 MEMB     184      DOPC     O31      OSL     -0.490000       15.9994           0
     22792 MEMB     184      DOPC     C31      CL       0.900000       12.0110           0
     22793 MEMB     184      DOPC     O32      OBL     -0.630000       15.9994           0
     22794 MEMB     184      DOPC     C32      CTL2    -0.220000       12.0110           0
     22795 MEMB     184      DOPC     H2X      HAL2     0.900000E-01   1.00800           0
     22796 MEMB     184      DOPC     H2Y      HAL2     0.900000E-01   1.00800           0
     22797 MEMB     184      DOPC     C23      CTL2    -0.180000       12.0110           0
     22798 MEMB     184      DOPC     H3R      HAL2     0.900000E-01   1.00800           0
     22799 MEMB     184      DOPC     H3S      HAL2     0.900000E-01   1.00800           0
     22800 MEMB     184      DOPC     C24      CTL2    -0.180000       12.0110           0
     22801 MEMB     184      DOPC     H4R      HAL2     0.900000E-01   1.00800           0
     22802 MEMB     184      DOPC     H4S      HAL2     0.900000E-01   1.00800           0
     22803 MEMB     184      DOPC     C25      CTL2    -0.180000       12.0110           0
     22804 MEMB     184      DOPC     H5R      HAL2     0.900000E-01   1.00800           0
     22805 MEMB     184      DOPC     H5S      HAL2     0.900000E-01   1.00800           0
     22806 MEMB     184      DOPC     C26      CTL2    -0.180000       12.0110           0
     22807 MEMB     184      DOPC     H6R      HAL2     0.900000E-01   1.00800           0
     22808 MEMB     184      DOPC     H6S      HAL2     0.900000E-01   1.00800           0
     22809 MEMB     184      DOPC     C27      CTL2    -0.180000       12.0110           0
     22810 MEMB     184      DOPC     H7R      HAL2     0.900000E-01   1.00800           0
     22811 MEMB     184      DOPC     H7S      HAL2     0.900000E-01   1.00800           0
     22812 MEMB     184      DOPC     C28      CTL2    -0.180000       12.0110           0
     22813 MEMB     184      DOPC     H8R      HAL2     0.900000E-01   1.00800           0
     22814 MEMB     184      DOPC     H8S      HAL2     0.900000E-01   1.00800           0
     22815 MEMB     184      DOPC     C29      CEL1    -0.150000       12.0110           0
     22816 MEMB     184      DOPC     H9R      HEL1     0.150000       1.00800           0
     22817 MEMB     184      DOPC     C210     CEL1    -0.150000       12.0110           0
     22818 MEMB     184      DOPC     H10R     HEL1     0.150000       1.00800           0
     22819 MEMB     184      DOPC     C211     CTL2    -0.180000       12.0110           0
     22820 MEMB     184      DOPC     H11R     HAL2     0.900000E-01   1.00800           0
     22821 MEMB     184      DOPC     H11S     HAL2     0.900000E-01   1.00800           0
     22822 MEMB     184      DOPC     C212     CTL2    -0.180000       12.0110           0
     22823 MEMB     184      DOPC     H12R     HAL2     0.900000E-01   1.00800           0
     22824 MEMB     184      DOPC     H12S     HAL2     0.900000E-01   1.00800           0
     22825 MEMB     184      DOPC     C213     CTL2    -0.180000       12.0110           0
     22826 MEMB     184      DOPC     H13R     HAL2     0.900000E-01   1.00800           0
     22827 MEMB     184      DOPC     H13S     HAL2     0.900000E-01   1.00800           0
     22828 MEMB     184      DOPC     C214     CTL2    -0.180000       12.0110           0
     22829 MEMB     184      DOPC     H14R     HAL2     0.900000E-01   1.00800           0
     22830 MEMB     184      DOPC     H14S     HAL2     0.900000E-01   1.00800           0
     22831 MEMB     184      DOPC     C215     CTL2    -0.180000       12.0110           0
     22832 MEMB     184      DOPC     H15R     HAL2     0.900000E-01   1.00800           0
     22833 MEMB     184      DOPC     H15S     HAL2     0.900000E-01   1.00800           0
     22834 MEMB     184      DOPC     C216     CTL2    -0.180000       12.0110           0
     22835 MEMB     184      DOPC     H16R     HAL2     0.900000E-01   1.00800           0
     22836 MEMB     184      DOPC     H16S     HAL2     0.900000E-01   1.00800           0
     22837 MEMB     184      DOPC     C217     CTL2    -0.180000       12.0110           0
     22838 MEMB     184      DOPC     H17R     HAL2     0.900000E-01   1.00800           0
     22839 MEMB     184      DOPC     H17S     HAL2     0.900000E-01   1.00800           0
     22840 MEMB     184      DOPC     C218     CTL3    -0.270000       12.0110           0
     22841 MEMB     184      DOPC     H18R     HAL3     0.900000E-01   1.00800           0
     22842 MEMB     184      DOPC     H18S     HAL3     0.900000E-01   1.00800           0
     22843 MEMB     184      DOPC     H18T     HAL3     0.900000E-01   1.00800           0
     22844 MEMB     184      DOPC     C33      CTL2    -0.180000       12.0110           0
     22845 MEMB     184      DOPC     H3X      HAL2     0.900000E-01   1.00800           0
     22846 MEMB     184      DOPC     H3Y      HAL2     0.900000E-01   1.00800           0
     22847 MEMB     184      DOPC     C34      CTL2    -0.180000       12.0110           0
     22848 MEMB     184      DOPC     H4X      HAL2     0.900000E-01   1.00800           0
     22849 MEMB     184      DOPC     H4Y      HAL2     0.900000E-01   1.00800           0
     22850 MEMB     184      DOPC     C35      CTL2    -0.180000       12.0110           0
     22851 MEMB     184      DOPC     H5X      HAL2     0.900000E-01   1.00800           0
     22852 MEMB     184      DOPC     H5Y      HAL2     0.900000E-01   1.00800           0
     22853 MEMB     184      DOPC     C36      CTL2    -0.180000       12.0110           0
     22854 MEMB     184      DOPC     H6X      HAL2     0.900000E-01   1.00800           0
     22855 MEMB     184      DOPC     H6Y      HAL2     0.900000E-01   1.00800           0
     22856 MEMB     184      DOPC     C37      CTL2    -0.180000       12.0110           0
     22857 MEMB     184      DOPC     H7X      HAL2     0.900000E-01   1.00800           0
     22858 MEMB     184      DOPC     H7Y      HAL2     0.900000E-01   1.00800           0
     22859 MEMB     184      DOPC     C38      CTL2    -0.180000       12.0110           0
     22860 MEMB     184      DOPC     H8X      HAL2     0.900000E-01   1.00800           0
     22861 MEMB     184      DOPC     H8Y      HAL2     0.900000E-01   1.00800           0
     22862 MEMB     184      DOPC     C39      CEL1    -0.150000       12.0110           0
     22863 MEMB     184      DOPC     H9X      HEL1     0.150000       1.00800           0
     22864 MEMB     184      DOPC     C310     CEL1    -0.150000       12.0110           0
     22865 MEMB     184      DOPC     H10X     HEL1     0.150000       1.00800           0
     22866 MEMB     184      DOPC     C311     CTL2    -0.180000       12.0110           0
     22867 MEMB     184      DOPC     H11X     HAL2     0.900000E-01   1.00800           0
     22868 MEMB     184      DOPC     H11Y     HAL2     0.900000E-01   1.00800           0
     22869 MEMB     184      DOPC     C312     CTL2    -0.180000       12.0110           0
     22870 MEMB     184      DOPC     H12X     HAL2     0.900000E-01   1.00800           0
     22871 MEMB     184      DOPC     H12Y     HAL2     0.900000E-01   1.00800           0
     22872 MEMB     184      DOPC     C313     CTL2    -0.180000       12.0110           0
     22873 MEMB     184      DOPC     H13X     HAL2     0.900000E-01   1.00800           0
     22874 MEMB     184      DOPC     H13Y     HAL2     0.900000E-01   1.00800           0
     22875 MEMB     184      DOPC     C314     CTL2    -0.180000       12.0110           0
     22876 MEMB     184      DOPC     H14X     HAL2     0.900000E-01   1.00800           0
     22877 MEMB     184      DOPC     H14Y     HAL2     0.900000E-01   1.00800           0
     22878 MEMB     184      DOPC     C315     CTL2    -0.180000       12.0110           0
     22879 MEMB     184      DOPC     H15X     HAL2     0.900000E-01   1.00800           0
     22880 MEMB     184      DOPC     H15Y     HAL2     0.900000E-01   1.00800           0
     22881 MEMB     184      DOPC     C316     CTL2    -0.180000       12.0110           0
     22882 MEMB     184      DOPC     H16X     HAL2     0.900000E-01   1.00800           0
     22883 MEMB     184      DOPC     H16Y     HAL2     0.900000E-01   1.00800           0
     22884 MEMB     184      DOPC     C317     CTL2    -0.180000       12.0110           0
     22885 MEMB     184      DOPC     H17X     HAL2     0.900000E-01   1.00800           0
     22886 MEMB     184      DOPC     H17Y     HAL2     0.900000E-01   1.00800           0
     22887 MEMB     184      DOPC     C318     CTL3    -0.270000       12.0110           0
     22888 MEMB     184      DOPC     H18X     HAL3     0.900000E-01   1.00800           0
     22889 MEMB     184      DOPC     H18Y     HAL3     0.900000E-01   1.00800           0
     22890 MEMB     184      DOPC     H18Z     HAL3     0.900000E-01   1.00800           0
     22891 MEMB     185      CHL1     C3       CRL1     0.140000       12.0110           0
     22892 MEMB     185      CHL1     H3       HGA1     0.900000E-01   1.00800           0
     22893 MEMB     185      CHL1     O3       OHL     -0.660000       15.9994           0
     22894 MEMB     185      CHL1     H3'      HOL      0.430000       1.00800           0
     22895 MEMB     185      CHL1     C4       CRL2    -0.180000       12.0110           0
     22896 MEMB     185      CHL1     H4A      HGA2     0.900000E-01   1.00800           0
     22897 MEMB     185      CHL1     H4B      HGA2     0.900000E-01   1.00800           0
     22898 MEMB     185      CHL1     C5       CEL1      0.00000       12.0110           0
     22899 MEMB     185      CHL1     C6       CEL1    -0.150000       12.0110           0
     22900 MEMB     185      CHL1     H6       HEL1     0.150000       1.00800           0
     22901 MEMB     185      CHL1     C7       CRL2    -0.180000       12.0110           0
     22902 MEMB     185      CHL1     H7A      HGA2     0.900000E-01   1.00800           0
     22903 MEMB     185      CHL1     H7B      HGA2     0.900000E-01   1.00800           0
     22904 MEMB     185      CHL1     C8       CRL1    -0.900000E-01   12.0110           0
     22905 MEMB     185      CHL1     H8       HGA1     0.900000E-01   1.00800           0
     22906 MEMB     185      CHL1     C14      CRL1    -0.900000E-01   12.0110           0
     22907 MEMB     185      CHL1     H14      HGA1     0.900000E-01   1.00800           0
     22908 MEMB     185      CHL1     C15      CRL2    -0.180000       12.0110           0
     22909 MEMB     185      CHL1     H15A     HGA2     0.900000E-01   1.00800           0
     22910 MEMB     185      CHL1     H15B     HGA2     0.900000E-01   1.00800           0
     22911 MEMB     185      CHL1     C16      CRL2    -0.180000       12.0110           0
     22912 MEMB     185      CHL1     H16A     HGA2     0.900000E-01   1.00800           0
     22913 MEMB     185      CHL1     H16B     HGA2     0.900000E-01   1.00800           0
     22914 MEMB     185      CHL1     C17      CRL1    -0.900000E-01   12.0110           0
     22915 MEMB     185      CHL1     H17      HGA1     0.900000E-01   1.00800           0
     22916 MEMB     185      CHL1     C13      CRL1      0.00000       12.0110           0
     22917 MEMB     185      CHL1     C18      CTL3    -0.270000       12.0110           0
     22918 MEMB     185      CHL1     H18A     HAL3     0.900000E-01   1.00800           0
     22919 MEMB     185      CHL1     H18B     HAL3     0.900000E-01   1.00800           0
     22920 MEMB     185      CHL1     H18C     HAL3     0.900000E-01   1.00800           0
     22921 MEMB     185      CHL1     C12      CRL2    -0.180000       12.0110           0
     22922 MEMB     185      CHL1     H12A     HGA2     0.900000E-01   1.00800           0
     22923 MEMB     185      CHL1     H12B     HGA2     0.900000E-01   1.00800           0
     22924 MEMB     185      CHL1     C11      CRL2    -0.180000       12.0110           0
     22925 MEMB     185      CHL1     H11A     HGA2     0.900000E-01   1.00800           0
     22926 MEMB     185      CHL1     H11B     HGA2     0.900000E-01   1.00800           0
     22927 MEMB     185      CHL1     C9       CRL1    -0.900000E-01   12.0110           0
     22928 MEMB     185      CHL1     H9       HGA1     0.900000E-01   1.00800           0
     22929 MEMB     185      CHL1     C10      CRL1      0.00000       12.0110           0
     22930 MEMB     185      CHL1     C19      CTL3    -0.270000       12.0110           0
     22931 MEMB     185      CHL1     H19A     HAL3     0.900000E-01   1.00800           0
     22932 MEMB     185      CHL1     H19B     HAL3     0.900000E-01   1.00800           0
     22933 MEMB     185      CHL1     H19C     HAL3     0.900000E-01   1.00800           0
     22934 MEMB     185      CHL1     C1       CRL2    -0.180000       12.0110           0
     22935 MEMB     185      CHL1     H1A      HGA2     0.900000E-01   1.00800           0
     22936 MEMB     185      CHL1     H1B      HGA2     0.900000E-01   1.00800           0
     22937 MEMB     185      CHL1     C2       CRL2    -0.180000       12.0110           0
     22938 MEMB     185      CHL1     H2A      HGA2     0.900000E-01   1.00800           0
     22939 MEMB     185      CHL1     H2B      HGA2     0.900000E-01   1.00800           0
     22940 MEMB     185      CHL1     C20      CTL1    -0.900000E-01   12.0110           0
     22941 MEMB     185      CHL1     H20      HAL1     0.900000E-01   1.00800           0
     22942 MEMB     185      CHL1     C21      CTL3    -0.270000       12.0110           0
     22943 MEMB     185      CHL1     H21A     HAL3     0.900000E-01   1.00800           0
     22944 MEMB     185      CHL1     H21B     HAL3     0.900000E-01   1.00800           0
     22945 MEMB     185      CHL1     H21C     HAL3     0.900000E-01   1.00800           0
     22946 MEMB     185      CHL1     C22      CTL2    -0.180000       12.0110           0
     22947 MEMB     185      CHL1     H22A     HAL2     0.900000E-01   1.00800           0
     22948 MEMB     185      CHL1     H22B     HAL2     0.900000E-01   1.00800           0
     22949 MEMB     185      CHL1     C23      CTL2    -0.180000       12.0110           0
     22950 MEMB     185      CHL1     H23A     HAL2     0.900000E-01   1.00800           0
     22951 MEMB     185      CHL1     H23B     HAL2     0.900000E-01   1.00800           0
     22952 MEMB     185      CHL1     C24      CTL2    -0.180000       12.0110           0
     22953 MEMB     185      CHL1     H24A     HAL2     0.900000E-01   1.00800           0
     22954 MEMB     185      CHL1     H24B     HAL2     0.900000E-01   1.00800           0
     22955 MEMB     185      CHL1     C25      CTL1    -0.900000E-01   12.0110           0
     22956 MEMB     185      CHL1     H25      HAL1     0.900000E-01   1.00800           0
     22957 MEMB     185      CHL1     C26      CTL3    -0.270000       12.0110           0
     22958 MEMB     185      CHL1     H26A     HAL3     0.900000E-01   1.00800           0
     22959 MEMB     185      CHL1     H26B     HAL3     0.900000E-01   1.00800           0
     22960 MEMB     185      CHL1     H26C     HAL3     0.900000E-01   1.00800           0
     22961 MEMB     185      CHL1     C27      CTL3    -0.270000       12.0110           0
     22962 MEMB     185      CHL1     H27A     HAL3     0.900000E-01   1.00800           0
     22963 MEMB     185      CHL1     H27B     HAL3     0.900000E-01   1.00800           0
     22964 MEMB     185      CHL1     H27C     HAL3     0.900000E-01   1.00800           0
     22965 MEMB     186      DOPE     N        NH3L    -0.300000       14.0070           0
     22966 MEMB     186      DOPE     HN1      HCL      0.330000       1.00800           0
     22967 MEMB     186      DOPE     HN2      HCL      0.330000       1.00800           0
     22968 MEMB     186      DOPE     HN3      HCL      0.330000       1.00800           0
     22969 MEMB     186      DOPE     C12      CTL2     0.130000       12.0110           0
     22970 MEMB     186      DOPE     H12A     HAL2     0.900000E-01   1.00800           0
     22971 MEMB     186      DOPE     H12B     HAL2     0.900000E-01   1.00800           0
     22972 MEMB     186      DOPE     C11      CTL2    -0.800000E-01   12.0110           0
     22973 MEMB     186      DOPE     H11A     HAL2     0.900000E-01   1.00800           0
     22974 MEMB     186      DOPE     H11B     HAL2     0.900000E-01   1.00800           0
     22975 MEMB     186      DOPE     P        PL        1.50000       30.9740           0
     22976 MEMB     186      DOPE     O13      O2L     -0.780000       15.9994           0
     22977 MEMB     186      DOPE     O14      O2L     -0.780000       15.9994           0
     22978 MEMB     186      DOPE     O11      OSLP    -0.570000       15.9994           0
     22979 MEMB     186      DOPE     O12      OSLP    -0.570000       15.9994           0
     22980 MEMB     186      DOPE     C1       CTL2    -0.800000E-01   12.0110           0
     22981 MEMB     186      DOPE     HA       HAL2     0.900000E-01   1.00800           0
     22982 MEMB     186      DOPE     HB       HAL2     0.900000E-01   1.00800           0
     22983 MEMB     186      DOPE     C2       CTL1     0.170000       12.0110           0
     22984 MEMB     186      DOPE     HS       HAL1     0.900000E-01   1.00800           0
     22985 MEMB     186      DOPE     O21      OSL     -0.490000       15.9994           0
     22986 MEMB     186      DOPE     C21      CL       0.900000       12.0110           0
     22987 MEMB     186      DOPE     O22      OBL     -0.630000       15.9994           0
     22988 MEMB     186      DOPE     C22      CTL2    -0.220000       12.0110           0
     22989 MEMB     186      DOPE     H2R      HAL2     0.900000E-01   1.00800           0
     22990 MEMB     186      DOPE     H2S      HAL2     0.900000E-01   1.00800           0
     22991 MEMB     186      DOPE     C3       CTL2     0.800000E-01   12.0110           0
     22992 MEMB     186      DOPE     HX       HAL2     0.900000E-01   1.00800           0
     22993 MEMB     186      DOPE     HY       HAL2     0.900000E-01   1.00800           0
     22994 MEMB     186      DOPE     O31      OSL     -0.490000       15.9994           0
     22995 MEMB     186      DOPE     C31      CL       0.900000       12.0110           0
     22996 MEMB     186      DOPE     O32      OBL     -0.630000       15.9994           0
     22997 MEMB     186      DOPE     C32      CTL2    -0.220000       12.0110           0
     22998 MEMB     186      DOPE     H2X      HAL2     0.900000E-01   1.00800           0
     22999 MEMB     186      DOPE     H2Y      HAL2     0.900000E-01   1.00800           0
     23000 MEMB     186      DOPE     C23      CTL2    -0.180000       12.0110           0
     23001 MEMB     186      DOPE     H3R      HAL2     0.900000E-01   1.00800           0
     23002 MEMB     186      DOPE     H3S      HAL2     0.900000E-01   1.00800           0
     23003 MEMB     186      DOPE     C24      CTL2    -0.180000       12.0110           0
     23004 MEMB     186      DOPE     H4R      HAL2     0.900000E-01   1.00800           0
     23005 MEMB     186      DOPE     H4S      HAL2     0.900000E-01   1.00800           0
     23006 MEMB     186      DOPE     C25      CTL2    -0.180000       12.0110           0
     23007 MEMB     186      DOPE     H5R      HAL2     0.900000E-01   1.00800           0
     23008 MEMB     186      DOPE     H5S      HAL2     0.900000E-01   1.00800           0
     23009 MEMB     186      DOPE     C26      CTL2    -0.180000       12.0110           0
     23010 MEMB     186      DOPE     H6R      HAL2     0.900000E-01   1.00800           0
     23011 MEMB     186      DOPE     H6S      HAL2     0.900000E-01   1.00800           0
     23012 MEMB     186      DOPE     C27      CTL2    -0.180000       12.0110           0
     23013 MEMB     186      DOPE     H7R      HAL2     0.900000E-01   1.00800           0
     23014 MEMB     186      DOPE     H7S      HAL2     0.900000E-01   1.00800           0
     23015 MEMB     186      DOPE     C28      CTL2    -0.180000       12.0110           0
     23016 MEMB     186      DOPE     H8R      HAL2     0.900000E-01   1.00800           0
     23017 MEMB     186      DOPE     H8S      HAL2     0.900000E-01   1.00800           0
     23018 MEMB     186      DOPE     C29      CEL1    -0.150000       12.0110           0
     23019 MEMB     186      DOPE     H9R      HEL1     0.150000       1.00800           0
     23020 MEMB     186      DOPE     C210     CEL1    -0.150000       12.0110           0
     23021 MEMB     186      DOPE     H10R     HEL1     0.150000       1.00800           0
     23022 MEMB     186      DOPE     C211     CTL2    -0.180000       12.0110           0
     23023 MEMB     186      DOPE     H11R     HAL2     0.900000E-01   1.00800           0
     23024 MEMB     186      DOPE     H11S     HAL2     0.900000E-01   1.00800           0
     23025 MEMB     186      DOPE     C212     CTL2    -0.180000       12.0110           0
     23026 MEMB     186      DOPE     H12R     HAL2     0.900000E-01   1.00800           0
     23027 MEMB     186      DOPE     H12S     HAL2     0.900000E-01   1.00800           0
     23028 MEMB     186      DOPE     C213     CTL2    -0.180000       12.0110           0
     23029 MEMB     186      DOPE     H13R     HAL2     0.900000E-01   1.00800           0
     23030 MEMB     186      DOPE     H13S     HAL2     0.900000E-01   1.00800           0
     23031 MEMB     186      DOPE     C214     CTL2    -0.180000       12.0110           0
     23032 MEMB     186      DOPE     H14R     HAL2     0.900000E-01   1.00800           0
     23033 MEMB     186      DOPE     H14S     HAL2     0.900000E-01   1.00800           0
     23034 MEMB     186      DOPE     C215     CTL2    -0.180000       12.0110           0
     23035 MEMB     186      DOPE     H15R     HAL2     0.900000E-01   1.00800           0
     23036 MEMB     186      DOPE     H15S     HAL2     0.900000E-01   1.00800           0
     23037 MEMB     186      DOPE     C216     CTL2    -0.180000       12.0110           0
     23038 MEMB     186      DOPE     H16R     HAL2     0.900000E-01   1.00800           0
     23039 MEMB     186      DOPE     H16S     HAL2     0.900000E-01   1.00800           0
     23040 MEMB     186      DOPE     C217     CTL2    -0.180000       12.0110           0
     23041 MEMB     186      DOPE     H17R     HAL2     0.900000E-01   1.00800           0
     23042 MEMB     186      DOPE     H17S     HAL2     0.900000E-01   1.00800           0
     23043 MEMB     186      DOPE     C218     CTL3    -0.270000       12.0110           0
     23044 MEMB     186      DOPE     H18R     HAL3     0.900000E-01   1.00800           0
     23045 MEMB     186      DOPE     H18S     HAL3     0.900000E-01   1.00800           0
     23046 MEMB     186      DOPE     H18T     HAL3     0.900000E-01   1.00800           0
     23047 MEMB     186      DOPE     C33      CTL2    -0.180000       12.0110           0
     23048 MEMB     186      DOPE     H3X      HAL2     0.900000E-01   1.00800           0
     23049 MEMB     186      DOPE     H3Y      HAL2     0.900000E-01   1.00800           0
     23050 MEMB     186      DOPE     C34      CTL2    -0.180000       12.0110           0
     23051 MEMB     186      DOPE     H4X      HAL2     0.900000E-01   1.00800           0
     23052 MEMB     186      DOPE     H4Y      HAL2     0.900000E-01   1.00800           0
     23053 MEMB     186      DOPE     C35      CTL2    -0.180000       12.0110           0
     23054 MEMB     186      DOPE     H5X      HAL2     0.900000E-01   1.00800           0
     23055 MEMB     186      DOPE     H5Y      HAL2     0.900000E-01   1.00800           0
     23056 MEMB     186      DOPE     C36      CTL2    -0.180000       12.0110           0
     23057 MEMB     186      DOPE     H6X      HAL2     0.900000E-01   1.00800           0
     23058 MEMB     186      DOPE     H6Y      HAL2     0.900000E-01   1.00800           0
     23059 MEMB     186      DOPE     C37      CTL2    -0.180000       12.0110           0
     23060 MEMB     186      DOPE     H7X      HAL2     0.900000E-01   1.00800           0
     23061 MEMB     186      DOPE     H7Y      HAL2     0.900000E-01   1.00800           0
     23062 MEMB     186      DOPE     C38      CTL2    -0.180000       12.0110           0
     23063 MEMB     186      DOPE     H8X      HAL2     0.900000E-01   1.00800           0
     23064 MEMB     186      DOPE     H8Y      HAL2     0.900000E-01   1.00800           0
     23065 MEMB     186      DOPE     C39      CEL1    -0.150000       12.0110           0
     23066 MEMB     186      DOPE     H9X      HEL1     0.150000       1.00800           0
     23067 MEMB     186      DOPE     C310     CEL1    -0.150000       12.0110           0
     23068 MEMB     186      DOPE     H10X     HEL1     0.150000       1.00800           0
     23069 MEMB     186      DOPE     C311     CTL2    -0.180000       12.0110           0
     23070 MEMB     186      DOPE     H11X     HAL2     0.900000E-01   1.00800           0
     23071 MEMB     186      DOPE     H11Y     HAL2     0.900000E-01   1.00800           0
     23072 MEMB     186      DOPE     C312     CTL2    -0.180000       12.0110           0
     23073 MEMB     186      DOPE     H12X     HAL2     0.900000E-01   1.00800           0
     23074 MEMB     186      DOPE     H12Y     HAL2     0.900000E-01   1.00800           0
     23075 MEMB     186      DOPE     C313     CTL2    -0.180000       12.0110           0
     23076 MEMB     186      DOPE     H13X     HAL2     0.900000E-01   1.00800           0
     23077 MEMB     186      DOPE     H13Y     HAL2     0.900000E-01   1.00800           0
     23078 MEMB     186      DOPE     C314     CTL2    -0.180000       12.0110           0
     23079 MEMB     186      DOPE     H14X     HAL2     0.900000E-01   1.00800           0
     23080 MEMB     186      DOPE     H14Y     HAL2     0.900000E-01   1.00800           0
     23081 MEMB     186      DOPE     C315     CTL2    -0.180000       12.0110           0
     23082 MEMB     186      DOPE     H15X     HAL2     0.900000E-01   1.00800           0
     23083 MEMB     186      DOPE     H15Y     HAL2     0.900000E-01   1.00800           0
     23084 MEMB     186      DOPE     C316     CTL2    -0.180000       12.0110           0
     23085 MEMB     186      DOPE     H16X     HAL2     0.900000E-01   1.00800           0
     23086 MEMB     186      DOPE     H16Y     HAL2     0.900000E-01   1.00800           0
     23087 MEMB     186      DOPE     C317     CTL2    -0.180000       12.0110           0
     23088 MEMB     186      DOPE     H17X     HAL2     0.900000E-01   1.00800           0
     23089 MEMB     186      DOPE     H17Y     HAL2     0.900000E-01   1.00800           0
     23090 MEMB     186      DOPE     C318     CTL3    -0.270000       12.0110           0
     23091 MEMB     186      DOPE     H18X     HAL3     0.900000E-01   1.00800           0
     23092 MEMB     186      DOPE     H18Y     HAL3     0.900000E-01   1.00800           0
     23093 MEMB     186      DOPE     H18Z     HAL3     0.900000E-01   1.00800           0
     23094 MEMB     187      DOPC     N        NTL     -0.600000       14.0070           0
     23095 MEMB     187      DOPC     C12      CTL2    -0.100000       12.0110           0
     23096 MEMB     187      DOPC     H12A     HL       0.250000       1.00800           0
     23097 MEMB     187      DOPC     H12B     HL       0.250000       1.00800           0
     23098 MEMB     187      DOPC     C13      CTL5    -0.350000       12.0110           0
     23099 MEMB     187      DOPC     H13A     HL       0.250000       1.00800           0
     23100 MEMB     187      DOPC     H13B     HL       0.250000       1.00800           0
     23101 MEMB     187      DOPC     H13C     HL       0.250000       1.00800           0
     23102 MEMB     187      DOPC     C14      CTL5    -0.350000       12.0110           0
     23103 MEMB     187      DOPC     H14A     HL       0.250000       1.00800           0
     23104 MEMB     187      DOPC     H14B     HL       0.250000       1.00800           0
     23105 MEMB     187      DOPC     H14C     HL       0.250000       1.00800           0
     23106 MEMB     187      DOPC     C15      CTL5    -0.350000       12.0110           0
     23107 MEMB     187      DOPC     H15A     HL       0.250000       1.00800           0
     23108 MEMB     187      DOPC     H15B     HL       0.250000       1.00800           0
     23109 MEMB     187      DOPC     H15C     HL       0.250000       1.00800           0
     23110 MEMB     187      DOPC     C11      CTL2    -0.800000E-01   12.0110           0
     23111 MEMB     187      DOPC     H11A     HAL2     0.900000E-01   1.00800           0
     23112 MEMB     187      DOPC     H11B     HAL2     0.900000E-01   1.00800           0
     23113 MEMB     187      DOPC     P        PL        1.50000       30.9740           0
     23114 MEMB     187      DOPC     O13      O2L     -0.780000       15.9994           0
     23115 MEMB     187      DOPC     O14      O2L     -0.780000       15.9994           0
     23116 MEMB     187      DOPC     O12      OSLP    -0.570000       15.9994           0
     23117 MEMB     187      DOPC     O11      OSLP    -0.570000       15.9994           0
     23118 MEMB     187      DOPC     C1       CTL2    -0.800000E-01   12.0110           0
     23119 MEMB     187      DOPC     HA       HAL2     0.900000E-01   1.00800           0
     23120 MEMB     187      DOPC     HB       HAL2     0.900000E-01   1.00800           0
     23121 MEMB     187      DOPC     C2       CTL1     0.170000       12.0110           0
     23122 MEMB     187      DOPC     HS       HAL1     0.900000E-01   1.00800           0
     23123 MEMB     187      DOPC     O21      OSL     -0.490000       15.9994           0
     23124 MEMB     187      DOPC     C21      CL       0.900000       12.0110           0
     23125 MEMB     187      DOPC     O22      OBL     -0.630000       15.9994           0
     23126 MEMB     187      DOPC     C22      CTL2    -0.220000       12.0110           0
     23127 MEMB     187      DOPC     H2R      HAL2     0.900000E-01   1.00800           0
     23128 MEMB     187      DOPC     H2S      HAL2     0.900000E-01   1.00800           0
     23129 MEMB     187      DOPC     C3       CTL2     0.800000E-01   12.0110           0
     23130 MEMB     187      DOPC     HX       HAL2     0.900000E-01   1.00800           0
     23131 MEMB     187      DOPC     HY       HAL2     0.900000E-01   1.00800           0
     23132 MEMB     187      DOPC     O31      OSL     -0.490000       15.9994           0
     23133 MEMB     187      DOPC     C31      CL       0.900000       12.0110           0
     23134 MEMB     187      DOPC     O32      OBL     -0.630000       15.9994           0
     23135 MEMB     187      DOPC     C32      CTL2    -0.220000       12.0110           0
     23136 MEMB     187      DOPC     H2X      HAL2     0.900000E-01   1.00800           0
     23137 MEMB     187      DOPC     H2Y      HAL2     0.900000E-01   1.00800           0
     23138 MEMB     187      DOPC     C23      CTL2    -0.180000       12.0110           0
     23139 MEMB     187      DOPC     H3R      HAL2     0.900000E-01   1.00800           0
     23140 MEMB     187      DOPC     H3S      HAL2     0.900000E-01   1.00800           0
     23141 MEMB     187      DOPC     C24      CTL2    -0.180000       12.0110           0
     23142 MEMB     187      DOPC     H4R      HAL2     0.900000E-01   1.00800           0
     23143 MEMB     187      DOPC     H4S      HAL2     0.900000E-01   1.00800           0
     23144 MEMB     187      DOPC     C25      CTL2    -0.180000       12.0110           0
     23145 MEMB     187      DOPC     H5R      HAL2     0.900000E-01   1.00800           0
     23146 MEMB     187      DOPC     H5S      HAL2     0.900000E-01   1.00800           0
     23147 MEMB     187      DOPC     C26      CTL2    -0.180000       12.0110           0
     23148 MEMB     187      DOPC     H6R      HAL2     0.900000E-01   1.00800           0
     23149 MEMB     187      DOPC     H6S      HAL2     0.900000E-01   1.00800           0
     23150 MEMB     187      DOPC     C27      CTL2    -0.180000       12.0110           0
     23151 MEMB     187      DOPC     H7R      HAL2     0.900000E-01   1.00800           0
     23152 MEMB     187      DOPC     H7S      HAL2     0.900000E-01   1.00800           0
     23153 MEMB     187      DOPC     C28      CTL2    -0.180000       12.0110           0
     23154 MEMB     187      DOPC     H8R      HAL2     0.900000E-01   1.00800           0
     23155 MEMB     187      DOPC     H8S      HAL2     0.900000E-01   1.00800           0
     23156 MEMB     187      DOPC     C29      CEL1    -0.150000       12.0110           0
     23157 MEMB     187      DOPC     H9R      HEL1     0.150000       1.00800           0
     23158 MEMB     187      DOPC     C210     CEL1    -0.150000       12.0110           0
     23159 MEMB     187      DOPC     H10R     HEL1     0.150000       1.00800           0
     23160 MEMB     187      DOPC     C211     CTL2    -0.180000       12.0110           0
     23161 MEMB     187      DOPC     H11R     HAL2     0.900000E-01   1.00800           0
     23162 MEMB     187      DOPC     H11S     HAL2     0.900000E-01   1.00800           0
     23163 MEMB     187      DOPC     C212     CTL2    -0.180000       12.0110           0
     23164 MEMB     187      DOPC     H12R     HAL2     0.900000E-01   1.00800           0
     23165 MEMB     187      DOPC     H12S     HAL2     0.900000E-01   1.00800           0
     23166 MEMB     187      DOPC     C213     CTL2    -0.180000       12.0110           0
     23167 MEMB     187      DOPC     H13R     HAL2     0.900000E-01   1.00800           0
     23168 MEMB     187      DOPC     H13S     HAL2     0.900000E-01   1.00800           0
     23169 MEMB     187      DOPC     C214     CTL2    -0.180000       12.0110           0
     23170 MEMB     187      DOPC     H14R     HAL2     0.900000E-01   1.00800           0
     23171 MEMB     187      DOPC     H14S     HAL2     0.900000E-01   1.00800           0
     23172 MEMB     187      DOPC     C215     CTL2    -0.180000       12.0110           0
     23173 MEMB     187      DOPC     H15R     HAL2     0.900000E-01   1.00800           0
     23174 MEMB     187      DOPC     H15S     HAL2     0.900000E-01   1.00800           0
     23175 MEMB     187      DOPC     C216     CTL2    -0.180000       12.0110           0
     23176 MEMB     187      DOPC     H16R     HAL2     0.900000E-01   1.00800           0
     23177 MEMB     187      DOPC     H16S     HAL2     0.900000E-01   1.00800           0
     23178 MEMB     187      DOPC     C217     CTL2    -0.180000       12.0110           0
     23179 MEMB     187      DOPC     H17R     HAL2     0.900000E-01   1.00800           0
     23180 MEMB     187      DOPC     H17S     HAL2     0.900000E-01   1.00800           0
     23181 MEMB     187      DOPC     C218     CTL3    -0.270000       12.0110           0
     23182 MEMB     187      DOPC     H18R     HAL3     0.900000E-01   1.00800           0
     23183 MEMB     187      DOPC     H18S     HAL3     0.900000E-01   1.00800           0
     23184 MEMB     187      DOPC     H18T     HAL3     0.900000E-01   1.00800           0
     23185 MEMB     187      DOPC     C33      CTL2    -0.180000       12.0110           0
     23186 MEMB     187      DOPC     H3X      HAL2     0.900000E-01   1.00800           0
     23187 MEMB     187      DOPC     H3Y      HAL2     0.900000E-01   1.00800           0
     23188 MEMB     187      DOPC     C34      CTL2    -0.180000       12.0110           0
     23189 MEMB     187      DOPC     H4X      HAL2     0.900000E-01   1.00800           0
     23190 MEMB     187      DOPC     H4Y      HAL2     0.900000E-01   1.00800           0
     23191 MEMB     187      DOPC     C35      CTL2    -0.180000       12.0110           0
     23192 MEMB     187      DOPC     H5X      HAL2     0.900000E-01   1.00800           0
     23193 MEMB     187      DOPC     H5Y      HAL2     0.900000E-01   1.00800           0
     23194 MEMB     187      DOPC     C36      CTL2    -0.180000       12.0110           0
     23195 MEMB     187      DOPC     H6X      HAL2     0.900000E-01   1.00800           0
     23196 MEMB     187      DOPC     H6Y      HAL2     0.900000E-01   1.00800           0
     23197 MEMB     187      DOPC     C37      CTL2    -0.180000       12.0110           0
     23198 MEMB     187      DOPC     H7X      HAL2     0.900000E-01   1.00800           0
     23199 MEMB     187      DOPC     H7Y      HAL2     0.900000E-01   1.00800           0
     23200 MEMB     187      DOPC     C38      CTL2    -0.180000       12.0110           0
     23201 MEMB     187      DOPC     H8X      HAL2     0.900000E-01   1.00800           0
     23202 MEMB     187      DOPC     H8Y      HAL2     0.900000E-01   1.00800           0
     23203 MEMB     187      DOPC     C39      CEL1    -0.150000       12.0110           0
     23204 MEMB     187      DOPC     H9X      HEL1     0.150000       1.00800           0
     23205 MEMB     187      DOPC     C310     CEL1    -0.150000       12.0110           0
     23206 MEMB     187      DOPC     H10X     HEL1     0.150000       1.00800           0
     23207 MEMB     187      DOPC     C311     CTL2    -0.180000       12.0110           0
     23208 MEMB     187      DOPC     H11X     HAL2     0.900000E-01   1.00800           0
     23209 MEMB     187      DOPC     H11Y     HAL2     0.900000E-01   1.00800           0
     23210 MEMB     187      DOPC     C312     CTL2    -0.180000       12.0110           0
     23211 MEMB     187      DOPC     H12X     HAL2     0.900000E-01   1.00800           0
     23212 MEMB     187      DOPC     H12Y     HAL2     0.900000E-01   1.00800           0
     23213 MEMB     187      DOPC     C313     CTL2    -0.180000       12.0110           0
     23214 MEMB     187      DOPC     H13X     HAL2     0.900000E-01   1.00800           0
     23215 MEMB     187      DOPC     H13Y     HAL2     0.900000E-01   1.00800           0
     23216 MEMB     187      DOPC     C314     CTL2    -0.180000       12.0110           0
     23217 MEMB     187      DOPC     H14X     HAL2     0.900000E-01   1.00800           0
     23218 MEMB     187      DOPC     H14Y     HAL2     0.900000E-01   1.00800           0
     23219 MEMB     187      DOPC     C315     CTL2    -0.180000       12.0110           0
     23220 MEMB     187      DOPC     H15X     HAL2     0.900000E-01   1.00800           0
     23221 MEMB     187      DOPC     H15Y     HAL2     0.900000E-01   1.00800           0
     23222 MEMB     187      DOPC     C316     CTL2    -0.180000       12.0110           0
     23223 MEMB     187      DOPC     H16X     HAL2     0.900000E-01   1.00800           0
     23224 MEMB     187      DOPC     H16Y     HAL2     0.900000E-01   1.00800           0
     23225 MEMB     187      DOPC     C317     CTL2    -0.180000       12.0110           0
     23226 MEMB     187      DOPC     H17X     HAL2     0.900000E-01   1.00800           0
     23227 MEMB     187      DOPC     H17Y     HAL2     0.900000E-01   1.00800           0
     23228 MEMB     187      DOPC     C318     CTL3    -0.270000       12.0110           0
     23229 MEMB     187      DOPC     H18X     HAL3     0.900000E-01   1.00800           0
     23230 MEMB     187      DOPC     H18Y     HAL3     0.900000E-01   1.00800           0
     23231 MEMB     187      DOPC     H18Z     HAL3     0.900000E-01   1.00800           0
     23232 MEMB     188      DOPE     N        NH3L    -0.300000       14.0070           0
     23233 MEMB     188      DOPE     HN1      HCL      0.330000       1.00800           0
     23234 MEMB     188      DOPE     HN2      HCL      0.330000       1.00800           0
     23235 MEMB     188      DOPE     HN3      HCL      0.330000       1.00800           0
     23236 MEMB     188      DOPE     C12      CTL2     0.130000       12.0110           0
     23237 MEMB     188      DOPE     H12A     HAL2     0.900000E-01   1.00800           0
     23238 MEMB     188      DOPE     H12B     HAL2     0.900000E-01   1.00800           0
     23239 MEMB     188      DOPE     C11      CTL2    -0.800000E-01   12.0110           0
     23240 MEMB     188      DOPE     H11A     HAL2     0.900000E-01   1.00800           0
     23241 MEMB     188      DOPE     H11B     HAL2     0.900000E-01   1.00800           0
     23242 MEMB     188      DOPE     P        PL        1.50000       30.9740           0
     23243 MEMB     188      DOPE     O13      O2L     -0.780000       15.9994           0
     23244 MEMB     188      DOPE     O14      O2L     -0.780000       15.9994           0
     23245 MEMB     188      DOPE     O11      OSLP    -0.570000       15.9994           0
     23246 MEMB     188      DOPE     O12      OSLP    -0.570000       15.9994           0
     23247 MEMB     188      DOPE     C1       CTL2    -0.800000E-01   12.0110           0
     23248 MEMB     188      DOPE     HA       HAL2     0.900000E-01   1.00800           0
     23249 MEMB     188      DOPE     HB       HAL2     0.900000E-01   1.00800           0
     23250 MEMB     188      DOPE     C2       CTL1     0.170000       12.0110           0
     23251 MEMB     188      DOPE     HS       HAL1     0.900000E-01   1.00800           0
     23252 MEMB     188      DOPE     O21      OSL     -0.490000       15.9994           0
     23253 MEMB     188      DOPE     C21      CL       0.900000       12.0110           0
     23254 MEMB     188      DOPE     O22      OBL     -0.630000       15.9994           0
     23255 MEMB     188      DOPE     C22      CTL2    -0.220000       12.0110           0
     23256 MEMB     188      DOPE     H2R      HAL2     0.900000E-01   1.00800           0
     23257 MEMB     188      DOPE     H2S      HAL2     0.900000E-01   1.00800           0
     23258 MEMB     188      DOPE     C3       CTL2     0.800000E-01   12.0110           0
     23259 MEMB     188      DOPE     HX       HAL2     0.900000E-01   1.00800           0
     23260 MEMB     188      DOPE     HY       HAL2     0.900000E-01   1.00800           0
     23261 MEMB     188      DOPE     O31      OSL     -0.490000       15.9994           0
     23262 MEMB     188      DOPE     C31      CL       0.900000       12.0110           0
     23263 MEMB     188      DOPE     O32      OBL     -0.630000       15.9994           0
     23264 MEMB     188      DOPE     C32      CTL2    -0.220000       12.0110           0
     23265 MEMB     188      DOPE     H2X      HAL2     0.900000E-01   1.00800           0
     23266 MEMB     188      DOPE     H2Y      HAL2     0.900000E-01   1.00800           0
     23267 MEMB     188      DOPE     C23      CTL2    -0.180000       12.0110           0
     23268 MEMB     188      DOPE     H3R      HAL2     0.900000E-01   1.00800           0
     23269 MEMB     188      DOPE     H3S      HAL2     0.900000E-01   1.00800           0
     23270 MEMB     188      DOPE     C24      CTL2    -0.180000       12.0110           0
     23271 MEMB     188      DOPE     H4R      HAL2     0.900000E-01   1.00800           0
     23272 MEMB     188      DOPE     H4S      HAL2     0.900000E-01   1.00800           0
     23273 MEMB     188      DOPE     C25      CTL2    -0.180000       12.0110           0
     23274 MEMB     188      DOPE     H5R      HAL2     0.900000E-01   1.00800           0
     23275 MEMB     188      DOPE     H5S      HAL2     0.900000E-01   1.00800           0
     23276 MEMB     188      DOPE     C26      CTL2    -0.180000       12.0110           0
     23277 MEMB     188      DOPE     H6R      HAL2     0.900000E-01   1.00800           0
     23278 MEMB     188      DOPE     H6S      HAL2     0.900000E-01   1.00800           0
     23279 MEMB     188      DOPE     C27      CTL2    -0.180000       12.0110           0
     23280 MEMB     188      DOPE     H7R      HAL2     0.900000E-01   1.00800           0
     23281 MEMB     188      DOPE     H7S      HAL2     0.900000E-01   1.00800           0
     23282 MEMB     188      DOPE     C28      CTL2    -0.180000       12.0110           0
     23283 MEMB     188      DOPE     H8R      HAL2     0.900000E-01   1.00800           0
     23284 MEMB     188      DOPE     H8S      HAL2     0.900000E-01   1.00800           0
     23285 MEMB     188      DOPE     C29      CEL1    -0.150000       12.0110           0
     23286 MEMB     188      DOPE     H9R      HEL1     0.150000       1.00800           0
     23287 MEMB     188      DOPE     C210     CEL1    -0.150000       12.0110           0
     23288 MEMB     188      DOPE     H10R     HEL1     0.150000       1.00800           0
     23289 MEMB     188      DOPE     C211     CTL2    -0.180000       12.0110           0
     23290 MEMB     188      DOPE     H11R     HAL2     0.900000E-01   1.00800           0
     23291 MEMB     188      DOPE     H11S     HAL2     0.900000E-01   1.00800           0
     23292 MEMB     188      DOPE     C212     CTL2    -0.180000       12.0110           0
     23293 MEMB     188      DOPE     H12R     HAL2     0.900000E-01   1.00800           0
     23294 MEMB     188      DOPE     H12S     HAL2     0.900000E-01   1.00800           0
     23295 MEMB     188      DOPE     C213     CTL2    -0.180000       12.0110           0
     23296 MEMB     188      DOPE     H13R     HAL2     0.900000E-01   1.00800           0
     23297 MEMB     188      DOPE     H13S     HAL2     0.900000E-01   1.00800           0
     23298 MEMB     188      DOPE     C214     CTL2    -0.180000       12.0110           0
     23299 MEMB     188      DOPE     H14R     HAL2     0.900000E-01   1.00800           0
     23300 MEMB     188      DOPE     H14S     HAL2     0.900000E-01   1.00800           0
     23301 MEMB     188      DOPE     C215     CTL2    -0.180000       12.0110           0
     23302 MEMB     188      DOPE     H15R     HAL2     0.900000E-01   1.00800           0
     23303 MEMB     188      DOPE     H15S     HAL2     0.900000E-01   1.00800           0
     23304 MEMB     188      DOPE     C216     CTL2    -0.180000       12.0110           0
     23305 MEMB     188      DOPE     H16R     HAL2     0.900000E-01   1.00800           0
     23306 MEMB     188      DOPE     H16S     HAL2     0.900000E-01   1.00800           0
     23307 MEMB     188      DOPE     C217     CTL2    -0.180000       12.0110           0
     23308 MEMB     188      DOPE     H17R     HAL2     0.900000E-01   1.00800           0
     23309 MEMB     188      DOPE     H17S     HAL2     0.900000E-01   1.00800           0
     23310 MEMB     188      DOPE     C218     CTL3    -0.270000       12.0110           0
     23311 MEMB     188      DOPE     H18R     HAL3     0.900000E-01   1.00800           0
     23312 MEMB     188      DOPE     H18S     HAL3     0.900000E-01   1.00800           0
     23313 MEMB     188      DOPE     H18T     HAL3     0.900000E-01   1.00800           0
     23314 MEMB     188      DOPE     C33      CTL2    -0.180000       12.0110           0
     23315 MEMB     188      DOPE     H3X      HAL2     0.900000E-01   1.00800           0
     23316 MEMB     188      DOPE     H3Y      HAL2     0.900000E-01   1.00800           0
     23317 MEMB     188      DOPE     C34      CTL2    -0.180000       12.0110           0
     23318 MEMB     188      DOPE     H4X      HAL2     0.900000E-01   1.00800           0
     23319 MEMB     188      DOPE     H4Y      HAL2     0.900000E-01   1.00800           0
     23320 MEMB     188      DOPE     C35      CTL2    -0.180000       12.0110           0
     23321 MEMB     188      DOPE     H5X      HAL2     0.900000E-01   1.00800           0
     23322 MEMB     188      DOPE     H5Y      HAL2     0.900000E-01   1.00800           0
     23323 MEMB     188      DOPE     C36      CTL2    -0.180000       12.0110           0
     23324 MEMB     188      DOPE     H6X      HAL2     0.900000E-01   1.00800           0
     23325 MEMB     188      DOPE     H6Y      HAL2     0.900000E-01   1.00800           0
     23326 MEMB     188      DOPE     C37      CTL2    -0.180000       12.0110           0
     23327 MEMB     188      DOPE     H7X      HAL2     0.900000E-01   1.00800           0
     23328 MEMB     188      DOPE     H7Y      HAL2     0.900000E-01   1.00800           0
     23329 MEMB     188      DOPE     C38      CTL2    -0.180000       12.0110           0
     23330 MEMB     188      DOPE     H8X      HAL2     0.900000E-01   1.00800           0
     23331 MEMB     188      DOPE     H8Y      HAL2     0.900000E-01   1.00800           0
     23332 MEMB     188      DOPE     C39      CEL1    -0.150000       12.0110           0
     23333 MEMB     188      DOPE     H9X      HEL1     0.150000       1.00800           0
     23334 MEMB     188      DOPE     C310     CEL1    -0.150000       12.0110           0
     23335 MEMB     188      DOPE     H10X     HEL1     0.150000       1.00800           0
     23336 MEMB     188      DOPE     C311     CTL2    -0.180000       12.0110           0
     23337 MEMB     188      DOPE     H11X     HAL2     0.900000E-01   1.00800           0
     23338 MEMB     188      DOPE     H11Y     HAL2     0.900000E-01   1.00800           0
     23339 MEMB     188      DOPE     C312     CTL2    -0.180000       12.0110           0
     23340 MEMB     188      DOPE     H12X     HAL2     0.900000E-01   1.00800           0
     23341 MEMB     188      DOPE     H12Y     HAL2     0.900000E-01   1.00800           0
     23342 MEMB     188      DOPE     C313     CTL2    -0.180000       12.0110           0
     23343 MEMB     188      DOPE     H13X     HAL2     0.900000E-01   1.00800           0
     23344 MEMB     188      DOPE     H13Y     HAL2     0.900000E-01   1.00800           0
     23345 MEMB     188      DOPE     C314     CTL2    -0.180000       12.0110           0
     23346 MEMB     188      DOPE     H14X     HAL2     0.900000E-01   1.00800           0
     23347 MEMB     188      DOPE     H14Y     HAL2     0.900000E-01   1.00800           0
     23348 MEMB     188      DOPE     C315     CTL2    -0.180000       12.0110           0
     23349 MEMB     188      DOPE     H15X     HAL2     0.900000E-01   1.00800           0
     23350 MEMB     188      DOPE     H15Y     HAL2     0.900000E-01   1.00800           0
     23351 MEMB     188      DOPE     C316     CTL2    -0.180000       12.0110           0
     23352 MEMB     188      DOPE     H16X     HAL2     0.900000E-01   1.00800           0
     23353 MEMB     188      DOPE     H16Y     HAL2     0.900000E-01   1.00800           0
     23354 MEMB     188      DOPE     C317     CTL2    -0.180000       12.0110           0
     23355 MEMB     188      DOPE     H17X     HAL2     0.900000E-01   1.00800           0
     23356 MEMB     188      DOPE     H17Y     HAL2     0.900000E-01   1.00800           0
     23357 MEMB     188      DOPE     C318     CTL3    -0.270000       12.0110           0
     23358 MEMB     188      DOPE     H18X     HAL3     0.900000E-01   1.00800           0
     23359 MEMB     188      DOPE     H18Y     HAL3     0.900000E-01   1.00800           0
     23360 MEMB     188      DOPE     H18Z     HAL3     0.900000E-01   1.00800           0
     23361 MEMB     189      DOPC     N        NTL     -0.600000       14.0070           0
     23362 MEMB     189      DOPC     C12      CTL2    -0.100000       12.0110           0
     23363 MEMB     189      DOPC     H12A     HL       0.250000       1.00800           0
     23364 MEMB     189      DOPC     H12B     HL       0.250000       1.00800           0
     23365 MEMB     189      DOPC     C13      CTL5    -0.350000       12.0110           0
     23366 MEMB     189      DOPC     H13A     HL       0.250000       1.00800           0
     23367 MEMB     189      DOPC     H13B     HL       0.250000       1.00800           0
     23368 MEMB     189      DOPC     H13C     HL       0.250000       1.00800           0
     23369 MEMB     189      DOPC     C14      CTL5    -0.350000       12.0110           0
     23370 MEMB     189      DOPC     H14A     HL       0.250000       1.00800           0
     23371 MEMB     189      DOPC     H14B     HL       0.250000       1.00800           0
     23372 MEMB     189      DOPC     H14C     HL       0.250000       1.00800           0
     23373 MEMB     189      DOPC     C15      CTL5    -0.350000       12.0110           0
     23374 MEMB     189      DOPC     H15A     HL       0.250000       1.00800           0
     23375 MEMB     189      DOPC     H15B     HL       0.250000       1.00800           0
     23376 MEMB     189      DOPC     H15C     HL       0.250000       1.00800           0
     23377 MEMB     189      DOPC     C11      CTL2    -0.800000E-01   12.0110           0
     23378 MEMB     189      DOPC     H11A     HAL2     0.900000E-01   1.00800           0
     23379 MEMB     189      DOPC     H11B     HAL2     0.900000E-01   1.00800           0
     23380 MEMB     189      DOPC     P        PL        1.50000       30.9740           0
     23381 MEMB     189      DOPC     O13      O2L     -0.780000       15.9994           0
     23382 MEMB     189      DOPC     O14      O2L     -0.780000       15.9994           0
     23383 MEMB     189      DOPC     O12      OSLP    -0.570000       15.9994           0
     23384 MEMB     189      DOPC     O11      OSLP    -0.570000       15.9994           0
     23385 MEMB     189      DOPC     C1       CTL2    -0.800000E-01   12.0110           0
     23386 MEMB     189      DOPC     HA       HAL2     0.900000E-01   1.00800           0
     23387 MEMB     189      DOPC     HB       HAL2     0.900000E-01   1.00800           0
     23388 MEMB     189      DOPC     C2       CTL1     0.170000       12.0110           0
     23389 MEMB     189      DOPC     HS       HAL1     0.900000E-01   1.00800           0
     23390 MEMB     189      DOPC     O21      OSL     -0.490000       15.9994           0
     23391 MEMB     189      DOPC     C21      CL       0.900000       12.0110           0
     23392 MEMB     189      DOPC     O22      OBL     -0.630000       15.9994           0
     23393 MEMB     189      DOPC     C22      CTL2    -0.220000       12.0110           0
     23394 MEMB     189      DOPC     H2R      HAL2     0.900000E-01   1.00800           0
     23395 MEMB     189      DOPC     H2S      HAL2     0.900000E-01   1.00800           0
     23396 MEMB     189      DOPC     C3       CTL2     0.800000E-01   12.0110           0
     23397 MEMB     189      DOPC     HX       HAL2     0.900000E-01   1.00800           0
     23398 MEMB     189      DOPC     HY       HAL2     0.900000E-01   1.00800           0
     23399 MEMB     189      DOPC     O31      OSL     -0.490000       15.9994           0
     23400 MEMB     189      DOPC     C31      CL       0.900000       12.0110           0
     23401 MEMB     189      DOPC     O32      OBL     -0.630000       15.9994           0
     23402 MEMB     189      DOPC     C32      CTL2    -0.220000       12.0110           0
     23403 MEMB     189      DOPC     H2X      HAL2     0.900000E-01   1.00800           0
     23404 MEMB     189      DOPC     H2Y      HAL2     0.900000E-01   1.00800           0
     23405 MEMB     189      DOPC     C23      CTL2    -0.180000       12.0110           0
     23406 MEMB     189      DOPC     H3R      HAL2     0.900000E-01   1.00800           0
     23407 MEMB     189      DOPC     H3S      HAL2     0.900000E-01   1.00800           0
     23408 MEMB     189      DOPC     C24      CTL2    -0.180000       12.0110           0
     23409 MEMB     189      DOPC     H4R      HAL2     0.900000E-01   1.00800           0
     23410 MEMB     189      DOPC     H4S      HAL2     0.900000E-01   1.00800           0
     23411 MEMB     189      DOPC     C25      CTL2    -0.180000       12.0110           0
     23412 MEMB     189      DOPC     H5R      HAL2     0.900000E-01   1.00800           0
     23413 MEMB     189      DOPC     H5S      HAL2     0.900000E-01   1.00800           0
     23414 MEMB     189      DOPC     C26      CTL2    -0.180000       12.0110           0
     23415 MEMB     189      DOPC     H6R      HAL2     0.900000E-01   1.00800           0
     23416 MEMB     189      DOPC     H6S      HAL2     0.900000E-01   1.00800           0
     23417 MEMB     189      DOPC     C27      CTL2    -0.180000       12.0110           0
     23418 MEMB     189      DOPC     H7R      HAL2     0.900000E-01   1.00800           0
     23419 MEMB     189      DOPC     H7S      HAL2     0.900000E-01   1.00800           0
     23420 MEMB     189      DOPC     C28      CTL2    -0.180000       12.0110           0
     23421 MEMB     189      DOPC     H8R      HAL2     0.900000E-01   1.00800           0
     23422 MEMB     189      DOPC     H8S      HAL2     0.900000E-01   1.00800           0
     23423 MEMB     189      DOPC     C29      CEL1    -0.150000       12.0110           0
     23424 MEMB     189      DOPC     H9R      HEL1     0.150000       1.00800           0
     23425 MEMB     189      DOPC     C210     CEL1    -0.150000       12.0110           0
     23426 MEMB     189      DOPC     H10R     HEL1     0.150000       1.00800           0
     23427 MEMB     189      DOPC     C211     CTL2    -0.180000       12.0110           0
     23428 MEMB     189      DOPC     H11R     HAL2     0.900000E-01   1.00800           0
     23429 MEMB     189      DOPC     H11S     HAL2     0.900000E-01   1.00800           0
     23430 MEMB     189      DOPC     C212     CTL2    -0.180000       12.0110           0
     23431 MEMB     189      DOPC     H12R     HAL2     0.900000E-01   1.00800           0
     23432 MEMB     189      DOPC     H12S     HAL2     0.900000E-01   1.00800           0
     23433 MEMB     189      DOPC     C213     CTL2    -0.180000       12.0110           0
     23434 MEMB     189      DOPC     H13R     HAL2     0.900000E-01   1.00800           0
     23435 MEMB     189      DOPC     H13S     HAL2     0.900000E-01   1.00800           0
     23436 MEMB     189      DOPC     C214     CTL2    -0.180000       12.0110           0
     23437 MEMB     189      DOPC     H14R     HAL2     0.900000E-01   1.00800           0
     23438 MEMB     189      DOPC     H14S     HAL2     0.900000E-01   1.00800           0
     23439 MEMB     189      DOPC     C215     CTL2    -0.180000       12.0110           0
     23440 MEMB     189      DOPC     H15R     HAL2     0.900000E-01   1.00800           0
     23441 MEMB     189      DOPC     H15S     HAL2     0.900000E-01   1.00800           0
     23442 MEMB     189      DOPC     C216     CTL2    -0.180000       12.0110           0
     23443 MEMB     189      DOPC     H16R     HAL2     0.900000E-01   1.00800           0
     23444 MEMB     189      DOPC     H16S     HAL2     0.900000E-01   1.00800           0
     23445 MEMB     189      DOPC     C217     CTL2    -0.180000       12.0110           0
     23446 MEMB     189      DOPC     H17R     HAL2     0.900000E-01   1.00800           0
     23447 MEMB     189      DOPC     H17S     HAL2     0.900000E-01   1.00800           0
     23448 MEMB     189      DOPC     C218     CTL3    -0.270000       12.0110           0
     23449 MEMB     189      DOPC     H18R     HAL3     0.900000E-01   1.00800           0
     23450 MEMB     189      DOPC     H18S     HAL3     0.900000E-01   1.00800           0
     23451 MEMB     189      DOPC     H18T     HAL3     0.900000E-01   1.00800           0
     23452 MEMB     189      DOPC     C33      CTL2    -0.180000       12.0110           0
     23453 MEMB     189      DOPC     H3X      HAL2     0.900000E-01   1.00800           0
     23454 MEMB     189      DOPC     H3Y      HAL2     0.900000E-01   1.00800           0
     23455 MEMB     189      DOPC     C34      CTL2    -0.180000       12.0110           0
     23456 MEMB     189      DOPC     H4X      HAL2     0.900000E-01   1.00800           0
     23457 MEMB     189      DOPC     H4Y      HAL2     0.900000E-01   1.00800           0
     23458 MEMB     189      DOPC     C35      CTL2    -0.180000       12.0110           0
     23459 MEMB     189      DOPC     H5X      HAL2     0.900000E-01   1.00800           0
     23460 MEMB     189      DOPC     H5Y      HAL2     0.900000E-01   1.00800           0
     23461 MEMB     189      DOPC     C36      CTL2    -0.180000       12.0110           0
     23462 MEMB     189      DOPC     H6X      HAL2     0.900000E-01   1.00800           0
     23463 MEMB     189      DOPC     H6Y      HAL2     0.900000E-01   1.00800           0
     23464 MEMB     189      DOPC     C37      CTL2    -0.180000       12.0110           0
     23465 MEMB     189      DOPC     H7X      HAL2     0.900000E-01   1.00800           0
     23466 MEMB     189      DOPC     H7Y      HAL2     0.900000E-01   1.00800           0
     23467 MEMB     189      DOPC     C38      CTL2    -0.180000       12.0110           0
     23468 MEMB     189      DOPC     H8X      HAL2     0.900000E-01   1.00800           0
     23469 MEMB     189      DOPC     H8Y      HAL2     0.900000E-01   1.00800           0
     23470 MEMB     189      DOPC     C39      CEL1    -0.150000       12.0110           0
     23471 MEMB     189      DOPC     H9X      HEL1     0.150000       1.00800           0
     23472 MEMB     189      DOPC     C310     CEL1    -0.150000       12.0110           0
     23473 MEMB     189      DOPC     H10X     HEL1     0.150000       1.00800           0
     23474 MEMB     189      DOPC     C311     CTL2    -0.180000       12.0110           0
     23475 MEMB     189      DOPC     H11X     HAL2     0.900000E-01   1.00800           0
     23476 MEMB     189      DOPC     H11Y     HAL2     0.900000E-01   1.00800           0
     23477 MEMB     189      DOPC     C312     CTL2    -0.180000       12.0110           0
     23478 MEMB     189      DOPC     H12X     HAL2     0.900000E-01   1.00800           0
     23479 MEMB     189      DOPC     H12Y     HAL2     0.900000E-01   1.00800           0
     23480 MEMB     189      DOPC     C313     CTL2    -0.180000       12.0110           0
     23481 MEMB     189      DOPC     H13X     HAL2     0.900000E-01   1.00800           0
     23482 MEMB     189      DOPC     H13Y     HAL2     0.900000E-01   1.00800           0
     23483 MEMB     189      DOPC     C314     CTL2    -0.180000       12.0110           0
     23484 MEMB     189      DOPC     H14X     HAL2     0.900000E-01   1.00800           0
     23485 MEMB     189      DOPC     H14Y     HAL2     0.900000E-01   1.00800           0
     23486 MEMB     189      DOPC     C315     CTL2    -0.180000       12.0110           0
     23487 MEMB     189      DOPC     H15X     HAL2     0.900000E-01   1.00800           0
     23488 MEMB     189      DOPC     H15Y     HAL2     0.900000E-01   1.00800           0
     23489 MEMB     189      DOPC     C316     CTL2    -0.180000       12.0110           0
     23490 MEMB     189      DOPC     H16X     HAL2     0.900000E-01   1.00800           0
     23491 MEMB     189      DOPC     H16Y     HAL2     0.900000E-01   1.00800           0
     23492 MEMB     189      DOPC     C317     CTL2    -0.180000       12.0110           0
     23493 MEMB     189      DOPC     H17X     HAL2     0.900000E-01   1.00800           0
     23494 MEMB     189      DOPC     H17Y     HAL2     0.900000E-01   1.00800           0
     23495 MEMB     189      DOPC     C318     CTL3    -0.270000       12.0110           0
     23496 MEMB     189      DOPC     H18X     HAL3     0.900000E-01   1.00800           0
     23497 MEMB     189      DOPC     H18Y     HAL3     0.900000E-01   1.00800           0
     23498 MEMB     189      DOPC     H18Z     HAL3     0.900000E-01   1.00800           0
     23499 MEMB     190      DOPC     N        NTL     -0.600000       14.0070           0
     23500 MEMB     190      DOPC     C12      CTL2    -0.100000       12.0110           0
     23501 MEMB     190      DOPC     H12A     HL       0.250000       1.00800           0
     23502 MEMB     190      DOPC     H12B     HL       0.250000       1.00800           0
     23503 MEMB     190      DOPC     C13      CTL5    -0.350000       12.0110           0
     23504 MEMB     190      DOPC     H13A     HL       0.250000       1.00800           0
     23505 MEMB     190      DOPC     H13B     HL       0.250000       1.00800           0
     23506 MEMB     190      DOPC     H13C     HL       0.250000       1.00800           0
     23507 MEMB     190      DOPC     C14      CTL5    -0.350000       12.0110           0
     23508 MEMB     190      DOPC     H14A     HL       0.250000       1.00800           0
     23509 MEMB     190      DOPC     H14B     HL       0.250000       1.00800           0
     23510 MEMB     190      DOPC     H14C     HL       0.250000       1.00800           0
     23511 MEMB     190      DOPC     C15      CTL5    -0.350000       12.0110           0
     23512 MEMB     190      DOPC     H15A     HL       0.250000       1.00800           0
     23513 MEMB     190      DOPC     H15B     HL       0.250000       1.00800           0
     23514 MEMB     190      DOPC     H15C     HL       0.250000       1.00800           0
     23515 MEMB     190      DOPC     C11      CTL2    -0.800000E-01   12.0110           0
     23516 MEMB     190      DOPC     H11A     HAL2     0.900000E-01   1.00800           0
     23517 MEMB     190      DOPC     H11B     HAL2     0.900000E-01   1.00800           0
     23518 MEMB     190      DOPC     P        PL        1.50000       30.9740           0
     23519 MEMB     190      DOPC     O13      O2L     -0.780000       15.9994           0
     23520 MEMB     190      DOPC     O14      O2L     -0.780000       15.9994           0
     23521 MEMB     190      DOPC     O12      OSLP    -0.570000       15.9994           0
     23522 MEMB     190      DOPC     O11      OSLP    -0.570000       15.9994           0
     23523 MEMB     190      DOPC     C1       CTL2    -0.800000E-01   12.0110           0
     23524 MEMB     190      DOPC     HA       HAL2     0.900000E-01   1.00800           0
     23525 MEMB     190      DOPC     HB       HAL2     0.900000E-01   1.00800           0
     23526 MEMB     190      DOPC     C2       CTL1     0.170000       12.0110           0
     23527 MEMB     190      DOPC     HS       HAL1     0.900000E-01   1.00800           0
     23528 MEMB     190      DOPC     O21      OSL     -0.490000       15.9994           0
     23529 MEMB     190      DOPC     C21      CL       0.900000       12.0110           0
     23530 MEMB     190      DOPC     O22      OBL     -0.630000       15.9994           0
     23531 MEMB     190      DOPC     C22      CTL2    -0.220000       12.0110           0
     23532 MEMB     190      DOPC     H2R      HAL2     0.900000E-01   1.00800           0
     23533 MEMB     190      DOPC     H2S      HAL2     0.900000E-01   1.00800           0
     23534 MEMB     190      DOPC     C3       CTL2     0.800000E-01   12.0110           0
     23535 MEMB     190      DOPC     HX       HAL2     0.900000E-01   1.00800           0
     23536 MEMB     190      DOPC     HY       HAL2     0.900000E-01   1.00800           0
     23537 MEMB     190      DOPC     O31      OSL     -0.490000       15.9994           0
     23538 MEMB     190      DOPC     C31      CL       0.900000       12.0110           0
     23539 MEMB     190      DOPC     O32      OBL     -0.630000       15.9994           0
     23540 MEMB     190      DOPC     C32      CTL2    -0.220000       12.0110           0
     23541 MEMB     190      DOPC     H2X      HAL2     0.900000E-01   1.00800           0
     23542 MEMB     190      DOPC     H2Y      HAL2     0.900000E-01   1.00800           0
     23543 MEMB     190      DOPC     C23      CTL2    -0.180000       12.0110           0
     23544 MEMB     190      DOPC     H3R      HAL2     0.900000E-01   1.00800           0
     23545 MEMB     190      DOPC     H3S      HAL2     0.900000E-01   1.00800           0
     23546 MEMB     190      DOPC     C24      CTL2    -0.180000       12.0110           0
     23547 MEMB     190      DOPC     H4R      HAL2     0.900000E-01   1.00800           0
     23548 MEMB     190      DOPC     H4S      HAL2     0.900000E-01   1.00800           0
     23549 MEMB     190      DOPC     C25      CTL2    -0.180000       12.0110           0
     23550 MEMB     190      DOPC     H5R      HAL2     0.900000E-01   1.00800           0
     23551 MEMB     190      DOPC     H5S      HAL2     0.900000E-01   1.00800           0
     23552 MEMB     190      DOPC     C26      CTL2    -0.180000       12.0110           0
     23553 MEMB     190      DOPC     H6R      HAL2     0.900000E-01   1.00800           0
     23554 MEMB     190      DOPC     H6S      HAL2     0.900000E-01   1.00800           0
     23555 MEMB     190      DOPC     C27      CTL2    -0.180000       12.0110           0
     23556 MEMB     190      DOPC     H7R      HAL2     0.900000E-01   1.00800           0
     23557 MEMB     190      DOPC     H7S      HAL2     0.900000E-01   1.00800           0
     23558 MEMB     190      DOPC     C28      CTL2    -0.180000       12.0110           0
     23559 MEMB     190      DOPC     H8R      HAL2     0.900000E-01   1.00800           0
     23560 MEMB     190      DOPC     H8S      HAL2     0.900000E-01   1.00800           0
     23561 MEMB     190      DOPC     C29      CEL1    -0.150000       12.0110           0
     23562 MEMB     190      DOPC     H9R      HEL1     0.150000       1.00800           0
     23563 MEMB     190      DOPC     C210     CEL1    -0.150000       12.0110           0
     23564 MEMB     190      DOPC     H10R     HEL1     0.150000       1.00800           0
     23565 MEMB     190      DOPC     C211     CTL2    -0.180000       12.0110           0
     23566 MEMB     190      DOPC     H11R     HAL2     0.900000E-01   1.00800           0
     23567 MEMB     190      DOPC     H11S     HAL2     0.900000E-01   1.00800           0
     23568 MEMB     190      DOPC     C212     CTL2    -0.180000       12.0110           0
     23569 MEMB     190      DOPC     H12R     HAL2     0.900000E-01   1.00800           0
     23570 MEMB     190      DOPC     H12S     HAL2     0.900000E-01   1.00800           0
     23571 MEMB     190      DOPC     C213     CTL2    -0.180000       12.0110           0
     23572 MEMB     190      DOPC     H13R     HAL2     0.900000E-01   1.00800           0
     23573 MEMB     190      DOPC     H13S     HAL2     0.900000E-01   1.00800           0
     23574 MEMB     190      DOPC     C214     CTL2    -0.180000       12.0110           0
     23575 MEMB     190      DOPC     H14R     HAL2     0.900000E-01   1.00800           0
     23576 MEMB     190      DOPC     H14S     HAL2     0.900000E-01   1.00800           0
     23577 MEMB     190      DOPC     C215     CTL2    -0.180000       12.0110           0
     23578 MEMB     190      DOPC     H15R     HAL2     0.900000E-01   1.00800           0
     23579 MEMB     190      DOPC     H15S     HAL2     0.900000E-01   1.00800           0
     23580 MEMB     190      DOPC     C216     CTL2    -0.180000       12.0110           0
     23581 MEMB     190      DOPC     H16R     HAL2     0.900000E-01   1.00800           0
     23582 MEMB     190      DOPC     H16S     HAL2     0.900000E-01   1.00800           0
     23583 MEMB     190      DOPC     C217     CTL2    -0.180000       12.0110           0
     23584 MEMB     190      DOPC     H17R     HAL2     0.900000E-01   1.00800           0
     23585 MEMB     190      DOPC     H17S     HAL2     0.900000E-01   1.00800           0
     23586 MEMB     190      DOPC     C218     CTL3    -0.270000       12.0110           0
     23587 MEMB     190      DOPC     H18R     HAL3     0.900000E-01   1.00800           0
     23588 MEMB     190      DOPC     H18S     HAL3     0.900000E-01   1.00800           0
     23589 MEMB     190      DOPC     H18T     HAL3     0.900000E-01   1.00800           0
     23590 MEMB     190      DOPC     C33      CTL2    -0.180000       12.0110           0
     23591 MEMB     190      DOPC     H3X      HAL2     0.900000E-01   1.00800           0
     23592 MEMB     190      DOPC     H3Y      HAL2     0.900000E-01   1.00800           0
     23593 MEMB     190      DOPC     C34      CTL2    -0.180000       12.0110           0
     23594 MEMB     190      DOPC     H4X      HAL2     0.900000E-01   1.00800           0
     23595 MEMB     190      DOPC     H4Y      HAL2     0.900000E-01   1.00800           0
     23596 MEMB     190      DOPC     C35      CTL2    -0.180000       12.0110           0
     23597 MEMB     190      DOPC     H5X      HAL2     0.900000E-01   1.00800           0
     23598 MEMB     190      DOPC     H5Y      HAL2     0.900000E-01   1.00800           0
     23599 MEMB     190      DOPC     C36      CTL2    -0.180000       12.0110           0
     23600 MEMB     190      DOPC     H6X      HAL2     0.900000E-01   1.00800           0
     23601 MEMB     190      DOPC     H6Y      HAL2     0.900000E-01   1.00800           0
     23602 MEMB     190      DOPC     C37      CTL2    -0.180000       12.0110           0
     23603 MEMB     190      DOPC     H7X      HAL2     0.900000E-01   1.00800           0
     23604 MEMB     190      DOPC     H7Y      HAL2     0.900000E-01   1.00800           0
     23605 MEMB     190      DOPC     C38      CTL2    -0.180000       12.0110           0
     23606 MEMB     190      DOPC     H8X      HAL2     0.900000E-01   1.00800           0
     23607 MEMB     190      DOPC     H8Y      HAL2     0.900000E-01   1.00800           0
     23608 MEMB     190      DOPC     C39      CEL1    -0.150000       12.0110           0
     23609 MEMB     190      DOPC     H9X      HEL1     0.150000       1.00800           0
     23610 MEMB     190      DOPC     C310     CEL1    -0.150000       12.0110           0
     23611 MEMB     190      DOPC     H10X     HEL1     0.150000       1.00800           0
     23612 MEMB     190      DOPC     C311     CTL2    -0.180000       12.0110           0
     23613 MEMB     190      DOPC     H11X     HAL2     0.900000E-01   1.00800           0
     23614 MEMB     190      DOPC     H11Y     HAL2     0.900000E-01   1.00800           0
     23615 MEMB     190      DOPC     C312     CTL2    -0.180000       12.0110           0
     23616 MEMB     190      DOPC     H12X     HAL2     0.900000E-01   1.00800           0
     23617 MEMB     190      DOPC     H12Y     HAL2     0.900000E-01   1.00800           0
     23618 MEMB     190      DOPC     C313     CTL2    -0.180000       12.0110           0
     23619 MEMB     190      DOPC     H13X     HAL2     0.900000E-01   1.00800           0
     23620 MEMB     190      DOPC     H13Y     HAL2     0.900000E-01   1.00800           0
     23621 MEMB     190      DOPC     C314     CTL2    -0.180000       12.0110           0
     23622 MEMB     190      DOPC     H14X     HAL2     0.900000E-01   1.00800           0
     23623 MEMB     190      DOPC     H14Y     HAL2     0.900000E-01   1.00800           0
     23624 MEMB     190      DOPC     C315     CTL2    -0.180000       12.0110           0
     23625 MEMB     190      DOPC     H15X     HAL2     0.900000E-01   1.00800           0
     23626 MEMB     190      DOPC     H15Y     HAL2     0.900000E-01   1.00800           0
     23627 MEMB     190      DOPC     C316     CTL2    -0.180000       12.0110           0
     23628 MEMB     190      DOPC     H16X     HAL2     0.900000E-01   1.00800           0
     23629 MEMB     190      DOPC     H16Y     HAL2     0.900000E-01   1.00800           0
     23630 MEMB     190      DOPC     C317     CTL2    -0.180000       12.0110           0
     23631 MEMB     190      DOPC     H17X     HAL2     0.900000E-01   1.00800           0
     23632 MEMB     190      DOPC     H17Y     HAL2     0.900000E-01   1.00800           0
     23633 MEMB     190      DOPC     C318     CTL3    -0.270000       12.0110           0
     23634 MEMB     190      DOPC     H18X     HAL3     0.900000E-01   1.00800           0
     23635 MEMB     190      DOPC     H18Y     HAL3     0.900000E-01   1.00800           0
     23636 MEMB     190      DOPC     H18Z     HAL3     0.900000E-01   1.00800           0
     23637 MEMB     191      DOPC     N        NTL     -0.600000       14.0070           0
     23638 MEMB     191      DOPC     C12      CTL2    -0.100000       12.0110           0
     23639 MEMB     191      DOPC     H12A     HL       0.250000       1.00800           0
     23640 MEMB     191      DOPC     H12B     HL       0.250000       1.00800           0
     23641 MEMB     191      DOPC     C13      CTL5    -0.350000       12.0110           0
     23642 MEMB     191      DOPC     H13A     HL       0.250000       1.00800           0
     23643 MEMB     191      DOPC     H13B     HL       0.250000       1.00800           0
     23644 MEMB     191      DOPC     H13C     HL       0.250000       1.00800           0
     23645 MEMB     191      DOPC     C14      CTL5    -0.350000       12.0110           0
     23646 MEMB     191      DOPC     H14A     HL       0.250000       1.00800           0
     23647 MEMB     191      DOPC     H14B     HL       0.250000       1.00800           0
     23648 MEMB     191      DOPC     H14C     HL       0.250000       1.00800           0
     23649 MEMB     191      DOPC     C15      CTL5    -0.350000       12.0110           0
     23650 MEMB     191      DOPC     H15A     HL       0.250000       1.00800           0
     23651 MEMB     191      DOPC     H15B     HL       0.250000       1.00800           0
     23652 MEMB     191      DOPC     H15C     HL       0.250000       1.00800           0
     23653 MEMB     191      DOPC     C11      CTL2    -0.800000E-01   12.0110           0
     23654 MEMB     191      DOPC     H11A     HAL2     0.900000E-01   1.00800           0
     23655 MEMB     191      DOPC     H11B     HAL2     0.900000E-01   1.00800           0
     23656 MEMB     191      DOPC     P        PL        1.50000       30.9740           0
     23657 MEMB     191      DOPC     O13      O2L     -0.780000       15.9994           0
     23658 MEMB     191      DOPC     O14      O2L     -0.780000       15.9994           0
     23659 MEMB     191      DOPC     O12      OSLP    -0.570000       15.9994           0
     23660 MEMB     191      DOPC     O11      OSLP    -0.570000       15.9994           0
     23661 MEMB     191      DOPC     C1       CTL2    -0.800000E-01   12.0110           0
     23662 MEMB     191      DOPC     HA       HAL2     0.900000E-01   1.00800           0
     23663 MEMB     191      DOPC     HB       HAL2     0.900000E-01   1.00800           0
     23664 MEMB     191      DOPC     C2       CTL1     0.170000       12.0110           0
     23665 MEMB     191      DOPC     HS       HAL1     0.900000E-01   1.00800           0
     23666 MEMB     191      DOPC     O21      OSL     -0.490000       15.9994           0
     23667 MEMB     191      DOPC     C21      CL       0.900000       12.0110           0
     23668 MEMB     191      DOPC     O22      OBL     -0.630000       15.9994           0
     23669 MEMB     191      DOPC     C22      CTL2    -0.220000       12.0110           0
     23670 MEMB     191      DOPC     H2R      HAL2     0.900000E-01   1.00800           0
     23671 MEMB     191      DOPC     H2S      HAL2     0.900000E-01   1.00800           0
     23672 MEMB     191      DOPC     C3       CTL2     0.800000E-01   12.0110           0
     23673 MEMB     191      DOPC     HX       HAL2     0.900000E-01   1.00800           0
     23674 MEMB     191      DOPC     HY       HAL2     0.900000E-01   1.00800           0
     23675 MEMB     191      DOPC     O31      OSL     -0.490000       15.9994           0
     23676 MEMB     191      DOPC     C31      CL       0.900000       12.0110           0
     23677 MEMB     191      DOPC     O32      OBL     -0.630000       15.9994           0
     23678 MEMB     191      DOPC     C32      CTL2    -0.220000       12.0110           0
     23679 MEMB     191      DOPC     H2X      HAL2     0.900000E-01   1.00800           0
     23680 MEMB     191      DOPC     H2Y      HAL2     0.900000E-01   1.00800           0
     23681 MEMB     191      DOPC     C23      CTL2    -0.180000       12.0110           0
     23682 MEMB     191      DOPC     H3R      HAL2     0.900000E-01   1.00800           0
     23683 MEMB     191      DOPC     H3S      HAL2     0.900000E-01   1.00800           0
     23684 MEMB     191      DOPC     C24      CTL2    -0.180000       12.0110           0
     23685 MEMB     191      DOPC     H4R      HAL2     0.900000E-01   1.00800           0
     23686 MEMB     191      DOPC     H4S      HAL2     0.900000E-01   1.00800           0
     23687 MEMB     191      DOPC     C25      CTL2    -0.180000       12.0110           0
     23688 MEMB     191      DOPC     H5R      HAL2     0.900000E-01   1.00800           0
     23689 MEMB     191      DOPC     H5S      HAL2     0.900000E-01   1.00800           0
     23690 MEMB     191      DOPC     C26      CTL2    -0.180000       12.0110           0
     23691 MEMB     191      DOPC     H6R      HAL2     0.900000E-01   1.00800           0
     23692 MEMB     191      DOPC     H6S      HAL2     0.900000E-01   1.00800           0
     23693 MEMB     191      DOPC     C27      CTL2    -0.180000       12.0110           0
     23694 MEMB     191      DOPC     H7R      HAL2     0.900000E-01   1.00800           0
     23695 MEMB     191      DOPC     H7S      HAL2     0.900000E-01   1.00800           0
     23696 MEMB     191      DOPC     C28      CTL2    -0.180000       12.0110           0
     23697 MEMB     191      DOPC     H8R      HAL2     0.900000E-01   1.00800           0
     23698 MEMB     191      DOPC     H8S      HAL2     0.900000E-01   1.00800           0
     23699 MEMB     191      DOPC     C29      CEL1    -0.150000       12.0110           0
     23700 MEMB     191      DOPC     H9R      HEL1     0.150000       1.00800           0
     23701 MEMB     191      DOPC     C210     CEL1    -0.150000       12.0110           0
     23702 MEMB     191      DOPC     H10R     HEL1     0.150000       1.00800           0
     23703 MEMB     191      DOPC     C211     CTL2    -0.180000       12.0110           0
     23704 MEMB     191      DOPC     H11R     HAL2     0.900000E-01   1.00800           0
     23705 MEMB     191      DOPC     H11S     HAL2     0.900000E-01   1.00800           0
     23706 MEMB     191      DOPC     C212     CTL2    -0.180000       12.0110           0
     23707 MEMB     191      DOPC     H12R     HAL2     0.900000E-01   1.00800           0
     23708 MEMB     191      DOPC     H12S     HAL2     0.900000E-01   1.00800           0
     23709 MEMB     191      DOPC     C213     CTL2    -0.180000       12.0110           0
     23710 MEMB     191      DOPC     H13R     HAL2     0.900000E-01   1.00800           0
     23711 MEMB     191      DOPC     H13S     HAL2     0.900000E-01   1.00800           0
     23712 MEMB     191      DOPC     C214     CTL2    -0.180000       12.0110           0
     23713 MEMB     191      DOPC     H14R     HAL2     0.900000E-01   1.00800           0
     23714 MEMB     191      DOPC     H14S     HAL2     0.900000E-01   1.00800           0
     23715 MEMB     191      DOPC     C215     CTL2    -0.180000       12.0110           0
     23716 MEMB     191      DOPC     H15R     HAL2     0.900000E-01   1.00800           0
     23717 MEMB     191      DOPC     H15S     HAL2     0.900000E-01   1.00800           0
     23718 MEMB     191      DOPC     C216     CTL2    -0.180000       12.0110           0
     23719 MEMB     191      DOPC     H16R     HAL2     0.900000E-01   1.00800           0
     23720 MEMB     191      DOPC     H16S     HAL2     0.900000E-01   1.00800           0
     23721 MEMB     191      DOPC     C217     CTL2    -0.180000       12.0110           0
     23722 MEMB     191      DOPC     H17R     HAL2     0.900000E-01   1.00800           0
     23723 MEMB     191      DOPC     H17S     HAL2     0.900000E-01   1.00800           0
     23724 MEMB     191      DOPC     C218     CTL3    -0.270000       12.0110           0
     23725 MEMB     191      DOPC     H18R     HAL3     0.900000E-01   1.00800           0
     23726 MEMB     191      DOPC     H18S     HAL3     0.900000E-01   1.00800           0
     23727 MEMB     191      DOPC     H18T     HAL3     0.900000E-01   1.00800           0
     23728 MEMB     191      DOPC     C33      CTL2    -0.180000       12.0110           0
     23729 MEMB     191      DOPC     H3X      HAL2     0.900000E-01   1.00800           0
     23730 MEMB     191      DOPC     H3Y      HAL2     0.900000E-01   1.00800           0
     23731 MEMB     191      DOPC     C34      CTL2    -0.180000       12.0110           0
     23732 MEMB     191      DOPC     H4X      HAL2     0.900000E-01   1.00800           0
     23733 MEMB     191      DOPC     H4Y      HAL2     0.900000E-01   1.00800           0
     23734 MEMB     191      DOPC     C35      CTL2    -0.180000       12.0110           0
     23735 MEMB     191      DOPC     H5X      HAL2     0.900000E-01   1.00800           0
     23736 MEMB     191      DOPC     H5Y      HAL2     0.900000E-01   1.00800           0
     23737 MEMB     191      DOPC     C36      CTL2    -0.180000       12.0110           0
     23738 MEMB     191      DOPC     H6X      HAL2     0.900000E-01   1.00800           0
     23739 MEMB     191      DOPC     H6Y      HAL2     0.900000E-01   1.00800           0
     23740 MEMB     191      DOPC     C37      CTL2    -0.180000       12.0110           0
     23741 MEMB     191      DOPC     H7X      HAL2     0.900000E-01   1.00800           0
     23742 MEMB     191      DOPC     H7Y      HAL2     0.900000E-01   1.00800           0
     23743 MEMB     191      DOPC     C38      CTL2    -0.180000       12.0110           0
     23744 MEMB     191      DOPC     H8X      HAL2     0.900000E-01   1.00800           0
     23745 MEMB     191      DOPC     H8Y      HAL2     0.900000E-01   1.00800           0
     23746 MEMB     191      DOPC     C39      CEL1    -0.150000       12.0110           0
     23747 MEMB     191      DOPC     H9X      HEL1     0.150000       1.00800           0
     23748 MEMB     191      DOPC     C310     CEL1    -0.150000       12.0110           0
     23749 MEMB     191      DOPC     H10X     HEL1     0.150000       1.00800           0
     23750 MEMB     191      DOPC     C311     CTL2    -0.180000       12.0110           0
     23751 MEMB     191      DOPC     H11X     HAL2     0.900000E-01   1.00800           0
     23752 MEMB     191      DOPC     H11Y     HAL2     0.900000E-01   1.00800           0
     23753 MEMB     191      DOPC     C312     CTL2    -0.180000       12.0110           0
     23754 MEMB     191      DOPC     H12X     HAL2     0.900000E-01   1.00800           0
     23755 MEMB     191      DOPC     H12Y     HAL2     0.900000E-01   1.00800           0
     23756 MEMB     191      DOPC     C313     CTL2    -0.180000       12.0110           0
     23757 MEMB     191      DOPC     H13X     HAL2     0.900000E-01   1.00800           0
     23758 MEMB     191      DOPC     H13Y     HAL2     0.900000E-01   1.00800           0
     23759 MEMB     191      DOPC     C314     CTL2    -0.180000       12.0110           0
     23760 MEMB     191      DOPC     H14X     HAL2     0.900000E-01   1.00800           0
     23761 MEMB     191      DOPC     H14Y     HAL2     0.900000E-01   1.00800           0
     23762 MEMB     191      DOPC     C315     CTL2    -0.180000       12.0110           0
     23763 MEMB     191      DOPC     H15X     HAL2     0.900000E-01   1.00800           0
     23764 MEMB     191      DOPC     H15Y     HAL2     0.900000E-01   1.00800           0
     23765 MEMB     191      DOPC     C316     CTL2    -0.180000       12.0110           0
     23766 MEMB     191      DOPC     H16X     HAL2     0.900000E-01   1.00800           0
     23767 MEMB     191      DOPC     H16Y     HAL2     0.900000E-01   1.00800           0
     23768 MEMB     191      DOPC     C317     CTL2    -0.180000       12.0110           0
     23769 MEMB     191      DOPC     H17X     HAL2     0.900000E-01   1.00800           0
     23770 MEMB     191      DOPC     H17Y     HAL2     0.900000E-01   1.00800           0
     23771 MEMB     191      DOPC     C318     CTL3    -0.270000       12.0110           0
     23772 MEMB     191      DOPC     H18X     HAL3     0.900000E-01   1.00800           0
     23773 MEMB     191      DOPC     H18Y     HAL3     0.900000E-01   1.00800           0
     23774 MEMB     191      DOPC     H18Z     HAL3     0.900000E-01   1.00800           0
     23775 MEMB     192      DOPC     N        NTL     -0.600000       14.0070           0
     23776 MEMB     192      DOPC     C12      CTL2    -0.100000       12.0110           0
     23777 MEMB     192      DOPC     H12A     HL       0.250000       1.00800           0
     23778 MEMB     192      DOPC     H12B     HL       0.250000       1.00800           0
     23779 MEMB     192      DOPC     C13      CTL5    -0.350000       12.0110           0
     23780 MEMB     192      DOPC     H13A     HL       0.250000       1.00800           0
     23781 MEMB     192      DOPC     H13B     HL       0.250000       1.00800           0
     23782 MEMB     192      DOPC     H13C     HL       0.250000       1.00800           0
     23783 MEMB     192      DOPC     C14      CTL5    -0.350000       12.0110           0
     23784 MEMB     192      DOPC     H14A     HL       0.250000       1.00800           0
     23785 MEMB     192      DOPC     H14B     HL       0.250000       1.00800           0
     23786 MEMB     192      DOPC     H14C     HL       0.250000       1.00800           0
     23787 MEMB     192      DOPC     C15      CTL5    -0.350000       12.0110           0
     23788 MEMB     192      DOPC     H15A     HL       0.250000       1.00800           0
     23789 MEMB     192      DOPC     H15B     HL       0.250000       1.00800           0
     23790 MEMB     192      DOPC     H15C     HL       0.250000       1.00800           0
     23791 MEMB     192      DOPC     C11      CTL2    -0.800000E-01   12.0110           0
     23792 MEMB     192      DOPC     H11A     HAL2     0.900000E-01   1.00800           0
     23793 MEMB     192      DOPC     H11B     HAL2     0.900000E-01   1.00800           0
     23794 MEMB     192      DOPC     P        PL        1.50000       30.9740           0
     23795 MEMB     192      DOPC     O13      O2L     -0.780000       15.9994           0
     23796 MEMB     192      DOPC     O14      O2L     -0.780000       15.9994           0
     23797 MEMB     192      DOPC     O12      OSLP    -0.570000       15.9994           0
     23798 MEMB     192      DOPC     O11      OSLP    -0.570000       15.9994           0
     23799 MEMB     192      DOPC     C1       CTL2    -0.800000E-01   12.0110           0
     23800 MEMB     192      DOPC     HA       HAL2     0.900000E-01   1.00800           0
     23801 MEMB     192      DOPC     HB       HAL2     0.900000E-01   1.00800           0
     23802 MEMB     192      DOPC     C2       CTL1     0.170000       12.0110           0
     23803 MEMB     192      DOPC     HS       HAL1     0.900000E-01   1.00800           0
     23804 MEMB     192      DOPC     O21      OSL     -0.490000       15.9994           0
     23805 MEMB     192      DOPC     C21      CL       0.900000       12.0110           0
     23806 MEMB     192      DOPC     O22      OBL     -0.630000       15.9994           0
     23807 MEMB     192      DOPC     C22      CTL2    -0.220000       12.0110           0
     23808 MEMB     192      DOPC     H2R      HAL2     0.900000E-01   1.00800           0
     23809 MEMB     192      DOPC     H2S      HAL2     0.900000E-01   1.00800           0
     23810 MEMB     192      DOPC     C3       CTL2     0.800000E-01   12.0110           0
     23811 MEMB     192      DOPC     HX       HAL2     0.900000E-01   1.00800           0
     23812 MEMB     192      DOPC     HY       HAL2     0.900000E-01   1.00800           0
     23813 MEMB     192      DOPC     O31      OSL     -0.490000       15.9994           0
     23814 MEMB     192      DOPC     C31      CL       0.900000       12.0110           0
     23815 MEMB     192      DOPC     O32      OBL     -0.630000       15.9994           0
     23816 MEMB     192      DOPC     C32      CTL2    -0.220000       12.0110           0
     23817 MEMB     192      DOPC     H2X      HAL2     0.900000E-01   1.00800           0
     23818 MEMB     192      DOPC     H2Y      HAL2     0.900000E-01   1.00800           0
     23819 MEMB     192      DOPC     C23      CTL2    -0.180000       12.0110           0
     23820 MEMB     192      DOPC     H3R      HAL2     0.900000E-01   1.00800           0
     23821 MEMB     192      DOPC     H3S      HAL2     0.900000E-01   1.00800           0
     23822 MEMB     192      DOPC     C24      CTL2    -0.180000       12.0110           0
     23823 MEMB     192      DOPC     H4R      HAL2     0.900000E-01   1.00800           0
     23824 MEMB     192      DOPC     H4S      HAL2     0.900000E-01   1.00800           0
     23825 MEMB     192      DOPC     C25      CTL2    -0.180000       12.0110           0
     23826 MEMB     192      DOPC     H5R      HAL2     0.900000E-01   1.00800           0
     23827 MEMB     192      DOPC     H5S      HAL2     0.900000E-01   1.00800           0
     23828 MEMB     192      DOPC     C26      CTL2    -0.180000       12.0110           0
     23829 MEMB     192      DOPC     H6R      HAL2     0.900000E-01   1.00800           0
     23830 MEMB     192      DOPC     H6S      HAL2     0.900000E-01   1.00800           0
     23831 MEMB     192      DOPC     C27      CTL2    -0.180000       12.0110           0
     23832 MEMB     192      DOPC     H7R      HAL2     0.900000E-01   1.00800           0
     23833 MEMB     192      DOPC     H7S      HAL2     0.900000E-01   1.00800           0
     23834 MEMB     192      DOPC     C28      CTL2    -0.180000       12.0110           0
     23835 MEMB     192      DOPC     H8R      HAL2     0.900000E-01   1.00800           0
     23836 MEMB     192      DOPC     H8S      HAL2     0.900000E-01   1.00800           0
     23837 MEMB     192      DOPC     C29      CEL1    -0.150000       12.0110           0
     23838 MEMB     192      DOPC     H9R      HEL1     0.150000       1.00800           0
     23839 MEMB     192      DOPC     C210     CEL1    -0.150000       12.0110           0
     23840 MEMB     192      DOPC     H10R     HEL1     0.150000       1.00800           0
     23841 MEMB     192      DOPC     C211     CTL2    -0.180000       12.0110           0
     23842 MEMB     192      DOPC     H11R     HAL2     0.900000E-01   1.00800           0
     23843 MEMB     192      DOPC     H11S     HAL2     0.900000E-01   1.00800           0
     23844 MEMB     192      DOPC     C212     CTL2    -0.180000       12.0110           0
     23845 MEMB     192      DOPC     H12R     HAL2     0.900000E-01   1.00800           0
     23846 MEMB     192      DOPC     H12S     HAL2     0.900000E-01   1.00800           0
     23847 MEMB     192      DOPC     C213     CTL2    -0.180000       12.0110           0
     23848 MEMB     192      DOPC     H13R     HAL2     0.900000E-01   1.00800           0
     23849 MEMB     192      DOPC     H13S     HAL2     0.900000E-01   1.00800           0
     23850 MEMB     192      DOPC     C214     CTL2    -0.180000       12.0110           0
     23851 MEMB     192      DOPC     H14R     HAL2     0.900000E-01   1.00800           0
     23852 MEMB     192      DOPC     H14S     HAL2     0.900000E-01   1.00800           0
     23853 MEMB     192      DOPC     C215     CTL2    -0.180000       12.0110           0
     23854 MEMB     192      DOPC     H15R     HAL2     0.900000E-01   1.00800           0
     23855 MEMB     192      DOPC     H15S     HAL2     0.900000E-01   1.00800           0
     23856 MEMB     192      DOPC     C216     CTL2    -0.180000       12.0110           0
     23857 MEMB     192      DOPC     H16R     HAL2     0.900000E-01   1.00800           0
     23858 MEMB     192      DOPC     H16S     HAL2     0.900000E-01   1.00800           0
     23859 MEMB     192      DOPC     C217     CTL2    -0.180000       12.0110           0
     23860 MEMB     192      DOPC     H17R     HAL2     0.900000E-01   1.00800           0
     23861 MEMB     192      DOPC     H17S     HAL2     0.900000E-01   1.00800           0
     23862 MEMB     192      DOPC     C218     CTL3    -0.270000       12.0110           0
     23863 MEMB     192      DOPC     H18R     HAL3     0.900000E-01   1.00800           0
     23864 MEMB     192      DOPC     H18S     HAL3     0.900000E-01   1.00800           0
     23865 MEMB     192      DOPC     H18T     HAL3     0.900000E-01   1.00800           0
     23866 MEMB     192      DOPC     C33      CTL2    -0.180000       12.0110           0
     23867 MEMB     192      DOPC     H3X      HAL2     0.900000E-01   1.00800           0
     23868 MEMB     192      DOPC     H3Y      HAL2     0.900000E-01   1.00800           0
     23869 MEMB     192      DOPC     C34      CTL2    -0.180000       12.0110           0
     23870 MEMB     192      DOPC     H4X      HAL2     0.900000E-01   1.00800           0
     23871 MEMB     192      DOPC     H4Y      HAL2     0.900000E-01   1.00800           0
     23872 MEMB     192      DOPC     C35      CTL2    -0.180000       12.0110           0
     23873 MEMB     192      DOPC     H5X      HAL2     0.900000E-01   1.00800           0
     23874 MEMB     192      DOPC     H5Y      HAL2     0.900000E-01   1.00800           0
     23875 MEMB     192      DOPC     C36      CTL2    -0.180000       12.0110           0
     23876 MEMB     192      DOPC     H6X      HAL2     0.900000E-01   1.00800           0
     23877 MEMB     192      DOPC     H6Y      HAL2     0.900000E-01   1.00800           0
     23878 MEMB     192      DOPC     C37      CTL2    -0.180000       12.0110           0
     23879 MEMB     192      DOPC     H7X      HAL2     0.900000E-01   1.00800           0
     23880 MEMB     192      DOPC     H7Y      HAL2     0.900000E-01   1.00800           0
     23881 MEMB     192      DOPC     C38      CTL2    -0.180000       12.0110           0
     23882 MEMB     192      DOPC     H8X      HAL2     0.900000E-01   1.00800           0
     23883 MEMB     192      DOPC     H8Y      HAL2     0.900000E-01   1.00800           0
     23884 MEMB     192      DOPC     C39      CEL1    -0.150000       12.0110           0
     23885 MEMB     192      DOPC     H9X      HEL1     0.150000       1.00800           0
     23886 MEMB     192      DOPC     C310     CEL1    -0.150000       12.0110           0
     23887 MEMB     192      DOPC     H10X     HEL1     0.150000       1.00800           0
     23888 MEMB     192      DOPC     C311     CTL2    -0.180000       12.0110           0
     23889 MEMB     192      DOPC     H11X     HAL2     0.900000E-01   1.00800           0
     23890 MEMB     192      DOPC     H11Y     HAL2     0.900000E-01   1.00800           0
     23891 MEMB     192      DOPC     C312     CTL2    -0.180000       12.0110           0
     23892 MEMB     192      DOPC     H12X     HAL2     0.900000E-01   1.00800           0
     23893 MEMB     192      DOPC     H12Y     HAL2     0.900000E-01   1.00800           0
     23894 MEMB     192      DOPC     C313     CTL2    -0.180000       12.0110           0
     23895 MEMB     192      DOPC     H13X     HAL2     0.900000E-01   1.00800           0
     23896 MEMB     192      DOPC     H13Y     HAL2     0.900000E-01   1.00800           0
     23897 MEMB     192      DOPC     C314     CTL2    -0.180000       12.0110           0
     23898 MEMB     192      DOPC     H14X     HAL2     0.900000E-01   1.00800           0
     23899 MEMB     192      DOPC     H14Y     HAL2     0.900000E-01   1.00800           0
     23900 MEMB     192      DOPC     C315     CTL2    -0.180000       12.0110           0
     23901 MEMB     192      DOPC     H15X     HAL2     0.900000E-01   1.00800           0
     23902 MEMB     192      DOPC     H15Y     HAL2     0.900000E-01   1.00800           0
     23903 MEMB     192      DOPC     C316     CTL2    -0.180000       12.0110           0
     23904 MEMB     192      DOPC     H16X     HAL2     0.900000E-01   1.00800           0
     23905 MEMB     192      DOPC     H16Y     HAL2     0.900000E-01   1.00800           0
     23906 MEMB     192      DOPC     C317     CTL2    -0.180000       12.0110           0
     23907 MEMB     192      DOPC     H17X     HAL2     0.900000E-01   1.00800           0
     23908 MEMB     192      DOPC     H17Y     HAL2     0.900000E-01   1.00800           0
     23909 MEMB     192      DOPC     C318     CTL3    -0.270000       12.0110           0
     23910 MEMB     192      DOPC     H18X     HAL3     0.900000E-01   1.00800           0
     23911 MEMB     192      DOPC     H18Y     HAL3     0.900000E-01   1.00800           0
     23912 MEMB     192      DOPC     H18Z     HAL3     0.900000E-01   1.00800           0
     23913 MEMB     193      DOPC     N        NTL     -0.600000       14.0070           0
     23914 MEMB     193      DOPC     C12      CTL2    -0.100000       12.0110           0
     23915 MEMB     193      DOPC     H12A     HL       0.250000       1.00800           0
     23916 MEMB     193      DOPC     H12B     HL       0.250000       1.00800           0
     23917 MEMB     193      DOPC     C13      CTL5    -0.350000       12.0110           0
     23918 MEMB     193      DOPC     H13A     HL       0.250000       1.00800           0
     23919 MEMB     193      DOPC     H13B     HL       0.250000       1.00800           0
     23920 MEMB     193      DOPC     H13C     HL       0.250000       1.00800           0
     23921 MEMB     193      DOPC     C14      CTL5    -0.350000       12.0110           0
     23922 MEMB     193      DOPC     H14A     HL       0.250000       1.00800           0
     23923 MEMB     193      DOPC     H14B     HL       0.250000       1.00800           0
     23924 MEMB     193      DOPC     H14C     HL       0.250000       1.00800           0
     23925 MEMB     193      DOPC     C15      CTL5    -0.350000       12.0110           0
     23926 MEMB     193      DOPC     H15A     HL       0.250000       1.00800           0
     23927 MEMB     193      DOPC     H15B     HL       0.250000       1.00800           0
     23928 MEMB     193      DOPC     H15C     HL       0.250000       1.00800           0
     23929 MEMB     193      DOPC     C11      CTL2    -0.800000E-01   12.0110           0
     23930 MEMB     193      DOPC     H11A     HAL2     0.900000E-01   1.00800           0
     23931 MEMB     193      DOPC     H11B     HAL2     0.900000E-01   1.00800           0
     23932 MEMB     193      DOPC     P        PL        1.50000       30.9740           0
     23933 MEMB     193      DOPC     O13      O2L     -0.780000       15.9994           0
     23934 MEMB     193      DOPC     O14      O2L     -0.780000       15.9994           0
     23935 MEMB     193      DOPC     O12      OSLP    -0.570000       15.9994           0
     23936 MEMB     193      DOPC     O11      OSLP    -0.570000       15.9994           0
     23937 MEMB     193      DOPC     C1       CTL2    -0.800000E-01   12.0110           0
     23938 MEMB     193      DOPC     HA       HAL2     0.900000E-01   1.00800           0
     23939 MEMB     193      DOPC     HB       HAL2     0.900000E-01   1.00800           0
     23940 MEMB     193      DOPC     C2       CTL1     0.170000       12.0110           0
     23941 MEMB     193      DOPC     HS       HAL1     0.900000E-01   1.00800           0
     23942 MEMB     193      DOPC     O21      OSL     -0.490000       15.9994           0
     23943 MEMB     193      DOPC     C21      CL       0.900000       12.0110           0
     23944 MEMB     193      DOPC     O22      OBL     -0.630000       15.9994           0
     23945 MEMB     193      DOPC     C22      CTL2    -0.220000       12.0110           0
     23946 MEMB     193      DOPC     H2R      HAL2     0.900000E-01   1.00800           0
     23947 MEMB     193      DOPC     H2S      HAL2     0.900000E-01   1.00800           0
     23948 MEMB     193      DOPC     C3       CTL2     0.800000E-01   12.0110           0
     23949 MEMB     193      DOPC     HX       HAL2     0.900000E-01   1.00800           0
     23950 MEMB     193      DOPC     HY       HAL2     0.900000E-01   1.00800           0
     23951 MEMB     193      DOPC     O31      OSL     -0.490000       15.9994           0
     23952 MEMB     193      DOPC     C31      CL       0.900000       12.0110           0
     23953 MEMB     193      DOPC     O32      OBL     -0.630000       15.9994           0
     23954 MEMB     193      DOPC     C32      CTL2    -0.220000       12.0110           0
     23955 MEMB     193      DOPC     H2X      HAL2     0.900000E-01   1.00800           0
     23956 MEMB     193      DOPC     H2Y      HAL2     0.900000E-01   1.00800           0
     23957 MEMB     193      DOPC     C23      CTL2    -0.180000       12.0110           0
     23958 MEMB     193      DOPC     H3R      HAL2     0.900000E-01   1.00800           0
     23959 MEMB     193      DOPC     H3S      HAL2     0.900000E-01   1.00800           0
     23960 MEMB     193      DOPC     C24      CTL2    -0.180000       12.0110           0
     23961 MEMB     193      DOPC     H4R      HAL2     0.900000E-01   1.00800           0
     23962 MEMB     193      DOPC     H4S      HAL2     0.900000E-01   1.00800           0
     23963 MEMB     193      DOPC     C25      CTL2    -0.180000       12.0110           0
     23964 MEMB     193      DOPC     H5R      HAL2     0.900000E-01   1.00800           0
     23965 MEMB     193      DOPC     H5S      HAL2     0.900000E-01   1.00800           0
     23966 MEMB     193      DOPC     C26      CTL2    -0.180000       12.0110           0
     23967 MEMB     193      DOPC     H6R      HAL2     0.900000E-01   1.00800           0
     23968 MEMB     193      DOPC     H6S      HAL2     0.900000E-01   1.00800           0
     23969 MEMB     193      DOPC     C27      CTL2    -0.180000       12.0110           0
     23970 MEMB     193      DOPC     H7R      HAL2     0.900000E-01   1.00800           0
     23971 MEMB     193      DOPC     H7S      HAL2     0.900000E-01   1.00800           0
     23972 MEMB     193      DOPC     C28      CTL2    -0.180000       12.0110           0
     23973 MEMB     193      DOPC     H8R      HAL2     0.900000E-01   1.00800           0
     23974 MEMB     193      DOPC     H8S      HAL2     0.900000E-01   1.00800           0
     23975 MEMB     193      DOPC     C29      CEL1    -0.150000       12.0110           0
     23976 MEMB     193      DOPC     H9R      HEL1     0.150000       1.00800           0
     23977 MEMB     193      DOPC     C210     CEL1    -0.150000       12.0110           0
     23978 MEMB     193      DOPC     H10R     HEL1     0.150000       1.00800           0
     23979 MEMB     193      DOPC     C211     CTL2    -0.180000       12.0110           0
     23980 MEMB     193      DOPC     H11R     HAL2     0.900000E-01   1.00800           0
     23981 MEMB     193      DOPC     H11S     HAL2     0.900000E-01   1.00800           0
     23982 MEMB     193      DOPC     C212     CTL2    -0.180000       12.0110           0
     23983 MEMB     193      DOPC     H12R     HAL2     0.900000E-01   1.00800           0
     23984 MEMB     193      DOPC     H12S     HAL2     0.900000E-01   1.00800           0
     23985 MEMB     193      DOPC     C213     CTL2    -0.180000       12.0110           0
     23986 MEMB     193      DOPC     H13R     HAL2     0.900000E-01   1.00800           0
     23987 MEMB     193      DOPC     H13S     HAL2     0.900000E-01   1.00800           0
     23988 MEMB     193      DOPC     C214     CTL2    -0.180000       12.0110           0
     23989 MEMB     193      DOPC     H14R     HAL2     0.900000E-01   1.00800           0
     23990 MEMB     193      DOPC     H14S     HAL2     0.900000E-01   1.00800           0
     23991 MEMB     193      DOPC     C215     CTL2    -0.180000       12.0110           0
     23992 MEMB     193      DOPC     H15R     HAL2     0.900000E-01   1.00800           0
     23993 MEMB     193      DOPC     H15S     HAL2     0.900000E-01   1.00800           0
     23994 MEMB     193      DOPC     C216     CTL2    -0.180000       12.0110           0
     23995 MEMB     193      DOPC     H16R     HAL2     0.900000E-01   1.00800           0
     23996 MEMB     193      DOPC     H16S     HAL2     0.900000E-01   1.00800           0
     23997 MEMB     193      DOPC     C217     CTL2    -0.180000       12.0110           0
     23998 MEMB     193      DOPC     H17R     HAL2     0.900000E-01   1.00800           0
     23999 MEMB     193      DOPC     H17S     HAL2     0.900000E-01   1.00800           0
     24000 MEMB     193      DOPC     C218     CTL3    -0.270000       12.0110           0
     24001 MEMB     193      DOPC     H18R     HAL3     0.900000E-01   1.00800           0
     24002 MEMB     193      DOPC     H18S     HAL3     0.900000E-01   1.00800           0
     24003 MEMB     193      DOPC     H18T     HAL3     0.900000E-01   1.00800           0
     24004 MEMB     193      DOPC     C33      CTL2    -0.180000       12.0110           0
     24005 MEMB     193      DOPC     H3X      HAL2     0.900000E-01   1.00800           0
     24006 MEMB     193      DOPC     H3Y      HAL2     0.900000E-01   1.00800           0
     24007 MEMB     193      DOPC     C34      CTL2    -0.180000       12.0110           0
     24008 MEMB     193      DOPC     H4X      HAL2     0.900000E-01   1.00800           0
     24009 MEMB     193      DOPC     H4Y      HAL2     0.900000E-01   1.00800           0
     24010 MEMB     193      DOPC     C35      CTL2    -0.180000       12.0110           0
     24011 MEMB     193      DOPC     H5X      HAL2     0.900000E-01   1.00800           0
     24012 MEMB     193      DOPC     H5Y      HAL2     0.900000E-01   1.00800           0
     24013 MEMB     193      DOPC     C36      CTL2    -0.180000       12.0110           0
     24014 MEMB     193      DOPC     H6X      HAL2     0.900000E-01   1.00800           0
     24015 MEMB     193      DOPC     H6Y      HAL2     0.900000E-01   1.00800           0
     24016 MEMB     193      DOPC     C37      CTL2    -0.180000       12.0110           0
     24017 MEMB     193      DOPC     H7X      HAL2     0.900000E-01   1.00800           0
     24018 MEMB     193      DOPC     H7Y      HAL2     0.900000E-01   1.00800           0
     24019 MEMB     193      DOPC     C38      CTL2    -0.180000       12.0110           0
     24020 MEMB     193      DOPC     H8X      HAL2     0.900000E-01   1.00800           0
     24021 MEMB     193      DOPC     H8Y      HAL2     0.900000E-01   1.00800           0
     24022 MEMB     193      DOPC     C39      CEL1    -0.150000       12.0110           0
     24023 MEMB     193      DOPC     H9X      HEL1     0.150000       1.00800           0
     24024 MEMB     193      DOPC     C310     CEL1    -0.150000       12.0110           0
     24025 MEMB     193      DOPC     H10X     HEL1     0.150000       1.00800           0
     24026 MEMB     193      DOPC     C311     CTL2    -0.180000       12.0110           0
     24027 MEMB     193      DOPC     H11X     HAL2     0.900000E-01   1.00800           0
     24028 MEMB     193      DOPC     H11Y     HAL2     0.900000E-01   1.00800           0
     24029 MEMB     193      DOPC     C312     CTL2    -0.180000       12.0110           0
     24030 MEMB     193      DOPC     H12X     HAL2     0.900000E-01   1.00800           0
     24031 MEMB     193      DOPC     H12Y     HAL2     0.900000E-01   1.00800           0
     24032 MEMB     193      DOPC     C313     CTL2    -0.180000       12.0110           0
     24033 MEMB     193      DOPC     H13X     HAL2     0.900000E-01   1.00800           0
     24034 MEMB     193      DOPC     H13Y     HAL2     0.900000E-01   1.00800           0
     24035 MEMB     193      DOPC     C314     CTL2    -0.180000       12.0110           0
     24036 MEMB     193      DOPC     H14X     HAL2     0.900000E-01   1.00800           0
     24037 MEMB     193      DOPC     H14Y     HAL2     0.900000E-01   1.00800           0
     24038 MEMB     193      DOPC     C315     CTL2    -0.180000       12.0110           0
     24039 MEMB     193      DOPC     H15X     HAL2     0.900000E-01   1.00800           0
     24040 MEMB     193      DOPC     H15Y     HAL2     0.900000E-01   1.00800           0
     24041 MEMB     193      DOPC     C316     CTL2    -0.180000       12.0110           0
     24042 MEMB     193      DOPC     H16X     HAL2     0.900000E-01   1.00800           0
     24043 MEMB     193      DOPC     H16Y     HAL2     0.900000E-01   1.00800           0
     24044 MEMB     193      DOPC     C317     CTL2    -0.180000       12.0110           0
     24045 MEMB     193      DOPC     H17X     HAL2     0.900000E-01   1.00800           0
     24046 MEMB     193      DOPC     H17Y     HAL2     0.900000E-01   1.00800           0
     24047 MEMB     193      DOPC     C318     CTL3    -0.270000       12.0110           0
     24048 MEMB     193      DOPC     H18X     HAL3     0.900000E-01   1.00800           0
     24049 MEMB     193      DOPC     H18Y     HAL3     0.900000E-01   1.00800           0
     24050 MEMB     193      DOPC     H18Z     HAL3     0.900000E-01   1.00800           0
     24051 MEMB     194      23SM     N        NTL     -0.600000       14.0070           0
     24052 MEMB     194      23SM     C15      CTL5    -0.350000       12.0110           0
     24053 MEMB     194      23SM     H15A     HL       0.250000       1.00800           0
     24054 MEMB     194      23SM     H15B     HL       0.250000       1.00800           0
     24055 MEMB     194      23SM     H15C     HL       0.250000       1.00800           0
     24056 MEMB     194      23SM     C14      CTL5    -0.350000       12.0110           0
     24057 MEMB     194      23SM     H14A     HL       0.250000       1.00800           0
     24058 MEMB     194      23SM     H14B     HL       0.250000       1.00800           0
     24059 MEMB     194      23SM     H14C     HL       0.250000       1.00800           0
     24060 MEMB     194      23SM     C13      CTL5    -0.350000       12.0110           0
     24061 MEMB     194      23SM     H13A     HL       0.250000       1.00800           0
     24062 MEMB     194      23SM     H13B     HL       0.250000       1.00800           0
     24063 MEMB     194      23SM     H13C     HL       0.250000       1.00800           0
     24064 MEMB     194      23SM     C12      CTL2    -0.100000       12.0110           0
     24065 MEMB     194      23SM     H12A     HL       0.250000       1.00800           0
     24066 MEMB     194      23SM     H12B     HL       0.250000       1.00800           0
     24067 MEMB     194      23SM     C11      CTL2    -0.800000E-01   12.0110           0
     24068 MEMB     194      23SM     H11A     HAL2     0.900000E-01   1.00800           0
     24069 MEMB     194      23SM     H11B     HAL2     0.900000E-01   1.00800           0
     24070 MEMB     194      23SM     P        PL        1.50000       30.9740           0
     24071 MEMB     194      23SM     O13      O2L     -0.780000       15.9994           0
     24072 MEMB     194      23SM     O14      O2L     -0.780000       15.9994           0
     24073 MEMB     194      23SM     O11      OSLP    -0.570000       15.9994           0
     24074 MEMB     194      23SM     O12      OSLP    -0.570000       15.9994           0
     24075 MEMB     194      23SM     C1S      CTL2    -0.800000E-01   12.0110           0
     24076 MEMB     194      23SM     H1S      HAL2     0.900000E-01   1.00800           0
     24077 MEMB     194      23SM     H1T      HAL2     0.900000E-01   1.00800           0
     24078 MEMB     194      23SM     NF       NHL     -0.700000       14.0070           0
     24079 MEMB     194      23SM     HNF      H        0.350000       1.00800           0
     24080 MEMB     194      23SM     C2S      CTL1     0.300000       12.0110           0
     24081 MEMB     194      23SM     H2S      HAL1     0.500000E-01   1.00800           0
     24082 MEMB     194      23SM     C3S      CTO1     0.500000       12.0110           0
     24083 MEMB     194      23SM     H3S      HAL1    -0.110000       1.00800           0
     24084 MEMB     194      23SM     O3       OHL     -0.690000       15.9994           0
     24085 MEMB     194      23SM     HO3      HOL      0.300000       1.00800           0
     24086 MEMB     194      23SM     C4S      CEL3    -0.150000       12.0110           0
     24087 MEMB     194      23SM     H4S      HEL1     0.150000       1.00800           0
     24088 MEMB     194      23SM     C5S      CEL3    -0.150000       12.0110           0
     24089 MEMB     194      23SM     H5S      HEL1     0.150000       1.00800           0
     24090 MEMB     194      23SM     C6S      CTL2    -0.180000       12.0110           0
     24091 MEMB     194      23SM     H6S      HAL2     0.900000E-01   1.00800           0
     24092 MEMB     194      23SM     H6T      HAL2     0.900000E-01   1.00800           0
     24093 MEMB     194      23SM     C7S      CTL2    -0.180000       12.0110           0
     24094 MEMB     194      23SM     H7S      HAL2     0.900000E-01   1.00800           0
     24095 MEMB     194      23SM     H7T      HAL2     0.900000E-01   1.00800           0
     24096 MEMB     194      23SM     C8S      CTL2    -0.180000       12.0110           0
     24097 MEMB     194      23SM     H8S      HAL2     0.900000E-01   1.00800           0
     24098 MEMB     194      23SM     H8T      HAL2     0.900000E-01   1.00800           0
     24099 MEMB     194      23SM     C9S      CTL2    -0.180000       12.0110           0
     24100 MEMB     194      23SM     H9S      HAL2     0.900000E-01   1.00800           0
     24101 MEMB     194      23SM     H9T      HAL2     0.900000E-01   1.00800           0
     24102 MEMB     194      23SM     C10S     CTL2    -0.180000       12.0110           0
     24103 MEMB     194      23SM     H10S     HAL2     0.900000E-01   1.00800           0
     24104 MEMB     194      23SM     H10T     HAL2     0.900000E-01   1.00800           0
     24105 MEMB     194      23SM     C11S     CTL2    -0.180000       12.0110           0
     24106 MEMB     194      23SM     H11S     HAL2     0.900000E-01   1.00800           0
     24107 MEMB     194      23SM     H11T     HAL2     0.900000E-01   1.00800           0
     24108 MEMB     194      23SM     C12S     CTL2    -0.180000       12.0110           0
     24109 MEMB     194      23SM     H12S     HAL2     0.900000E-01   1.00800           0
     24110 MEMB     194      23SM     H12T     HAL2     0.900000E-01   1.00800           0
     24111 MEMB     194      23SM     C13S     CTL2    -0.180000       12.0110           0
     24112 MEMB     194      23SM     H13S     HAL2     0.900000E-01   1.00800           0
     24113 MEMB     194      23SM     H13T     HAL2     0.900000E-01   1.00800           0
     24114 MEMB     194      23SM     C14S     CTL2    -0.180000       12.0110           0
     24115 MEMB     194      23SM     H14S     HAL2     0.900000E-01   1.00800           0
     24116 MEMB     194      23SM     H14T     HAL2     0.900000E-01   1.00800           0
     24117 MEMB     194      23SM     C15S     CTL2    -0.180000       12.0110           0
     24118 MEMB     194      23SM     H15S     HAL2     0.900000E-01   1.00800           0
     24119 MEMB     194      23SM     H15T     HAL2     0.900000E-01   1.00800           0
     24120 MEMB     194      23SM     C16S     CTL2    -0.180000       12.0110           0
     24121 MEMB     194      23SM     H16S     HAL2     0.900000E-01   1.00800           0
     24122 MEMB     194      23SM     H16T     HAL2     0.900000E-01   1.00800           0
     24123 MEMB     194      23SM     C17S     CTL2    -0.180000       12.0110           0
     24124 MEMB     194      23SM     H17S     HAL2     0.900000E-01   1.00800           0
     24125 MEMB     194      23SM     H17T     HAL2     0.900000E-01   1.00800           0
     24126 MEMB     194      23SM     C18S     CTL3    -0.270000       12.0110           0
     24127 MEMB     194      23SM     H18S     HAL3     0.900000E-01   1.00800           0
     24128 MEMB     194      23SM     H18T     HAL3     0.900000E-01   1.00800           0
     24129 MEMB     194      23SM     H18U     HAL3     0.900000E-01   1.00800           0
     24130 MEMB     194      23SM     C1F      C        0.550000       12.0110           0
     24131 MEMB     194      23SM     OF       O       -0.600000       15.9994           0
     24132 MEMB     194      23SM     C2F      CTL2    -0.700000E-01   12.0110           0
     24133 MEMB     194      23SM     H2F      HAL2     0.600000E-01   1.00800           0
     24134 MEMB     194      23SM     H2G      HAL2     0.600000E-01   1.00800           0
     24135 MEMB     194      23SM     C3F      CTL2    -0.180000       12.0110           0
     24136 MEMB     194      23SM     H3F      HAL2     0.900000E-01   1.00800           0
     24137 MEMB     194      23SM     H3G      HAL2     0.900000E-01   1.00800           0
     24138 MEMB     194      23SM     C4F      CTL2    -0.180000       12.0110           0
     24139 MEMB     194      23SM     H4F      HAL2     0.900000E-01   1.00800           0
     24140 MEMB     194      23SM     H4G      HAL2     0.900000E-01   1.00800           0
     24141 MEMB     194      23SM     C5F      CTL2    -0.180000       12.0110           0
     24142 MEMB     194      23SM     H5F      HAL2     0.900000E-01   1.00800           0
     24143 MEMB     194      23SM     H5G      HAL2     0.900000E-01   1.00800           0
     24144 MEMB     194      23SM     C6F      CTL2    -0.180000       12.0110           0
     24145 MEMB     194      23SM     H6F      HAL2     0.900000E-01   1.00800           0
     24146 MEMB     194      23SM     H6G      HAL2     0.900000E-01   1.00800           0
     24147 MEMB     194      23SM     C7F      CTL2    -0.180000       12.0110           0
     24148 MEMB     194      23SM     H7F      HAL2     0.900000E-01   1.00800           0
     24149 MEMB     194      23SM     H7G      HAL2     0.900000E-01   1.00800           0
     24150 MEMB     194      23SM     C8F      CTL2    -0.180000       12.0110           0
     24151 MEMB     194      23SM     H8F      HAL2     0.900000E-01   1.00800           0
     24152 MEMB     194      23SM     H8G      HAL2     0.900000E-01   1.00800           0
     24153 MEMB     194      23SM     C9F      CTL2    -0.180000       12.0110           0
     24154 MEMB     194      23SM     H9F      HAL2     0.900000E-01   1.00800           0
     24155 MEMB     194      23SM     H9G      HAL2     0.900000E-01   1.00800           0
     24156 MEMB     194      23SM     C10F     CTL2    -0.180000       12.0110           0
     24157 MEMB     194      23SM     H10F     HAL2     0.900000E-01   1.00800           0
     24158 MEMB     194      23SM     H10G     HAL2     0.900000E-01   1.00800           0
     24159 MEMB     194      23SM     C11F     CTL2    -0.180000       12.0110           0
     24160 MEMB     194      23SM     H11F     HAL2     0.900000E-01   1.00800           0
     24161 MEMB     194      23SM     H11G     HAL2     0.900000E-01   1.00800           0
     24162 MEMB     194      23SM     C12F     CTL2    -0.180000       12.0110           0
     24163 MEMB     194      23SM     H12F     HAL2     0.900000E-01   1.00800           0
     24164 MEMB     194      23SM     H12G     HAL2     0.900000E-01   1.00800           0
     24165 MEMB     194      23SM     C13F     CTL2    -0.180000       12.0110           0
     24166 MEMB     194      23SM     H13F     HAL2     0.900000E-01   1.00800           0
     24167 MEMB     194      23SM     H13G     HAL2     0.900000E-01   1.00800           0
     24168 MEMB     194      23SM     C14F     CTL2    -0.180000       12.0110           0
     24169 MEMB     194      23SM     H14F     HAL2     0.900000E-01   1.00800           0
     24170 MEMB     194      23SM     H14G     HAL2     0.900000E-01   1.00800           0
     24171 MEMB     194      23SM     C15F     CTL2    -0.180000       12.0110           0
     24172 MEMB     194      23SM     H15F     HAL2     0.900000E-01   1.00800           0
     24173 MEMB     194      23SM     H15G     HAL2     0.900000E-01   1.00800           0
     24174 MEMB     194      23SM     C16F     CTL2    -0.180000       12.0110           0
     24175 MEMB     194      23SM     H16F     HAL2     0.900000E-01   1.00800           0
     24176 MEMB     194      23SM     H16G     HAL2     0.900000E-01   1.00800           0
     24177 MEMB     194      23SM     C17F     CTL2    -0.180000       12.0110           0
     24178 MEMB     194      23SM     H17F     HAL2     0.900000E-01   1.00800           0
     24179 MEMB     194      23SM     H17G     HAL2     0.900000E-01   1.00800           0
     24180 MEMB     194      23SM     C18F     CTL2    -0.180000       12.0110           0
     24181 MEMB     194      23SM     H18F     HAL2     0.900000E-01   1.00800           0
     24182 MEMB     194      23SM     H18G     HAL2     0.900000E-01   1.00800           0
     24183 MEMB     194      23SM     C19F     CTL2    -0.180000       12.0110           0
     24184 MEMB     194      23SM     H19F     HAL2     0.900000E-01   1.00800           0
     24185 MEMB     194      23SM     H19G     HAL2     0.900000E-01   1.00800           0
     24186 MEMB     194      23SM     C20F     CTL2    -0.180000       12.0110           0
     24187 MEMB     194      23SM     H20F     HAL2     0.900000E-01   1.00800           0
     24188 MEMB     194      23SM     H20G     HAL2     0.900000E-01   1.00800           0
     24189 MEMB     194      23SM     C21F     CTL2    -0.180000       12.0110           0
     24190 MEMB     194      23SM     H21F     HAL2     0.900000E-01   1.00800           0
     24191 MEMB     194      23SM     H21G     HAL2     0.900000E-01   1.00800           0
     24192 MEMB     194      23SM     C22F     CTL2    -0.180000       12.0110           0
     24193 MEMB     194      23SM     H22F     HAL2     0.900000E-01   1.00800           0
     24194 MEMB     194      23SM     H22G     HAL2     0.900000E-01   1.00800           0
     24195 MEMB     194      23SM     C23F     CTL3    -0.270000       12.0110           0
     24196 MEMB     194      23SM     H23F     HAL3     0.900000E-01   1.00800           0
     24197 MEMB     194      23SM     H23G     HAL3     0.900000E-01   1.00800           0
     24198 MEMB     194      23SM     H23H     HAL3     0.900000E-01   1.00800           0
     24199 MEMB     195      CHL1     C3       CRL1     0.140000       12.0110           0
     24200 MEMB     195      CHL1     H3       HGA1     0.900000E-01   1.00800           0
     24201 MEMB     195      CHL1     O3       OHL     -0.660000       15.9994           0
     24202 MEMB     195      CHL1     H3'      HOL      0.430000       1.00800           0
     24203 MEMB     195      CHL1     C4       CRL2    -0.180000       12.0110           0
     24204 MEMB     195      CHL1     H4A      HGA2     0.900000E-01   1.00800           0
     24205 MEMB     195      CHL1     H4B      HGA2     0.900000E-01   1.00800           0
     24206 MEMB     195      CHL1     C5       CEL1      0.00000       12.0110           0
     24207 MEMB     195      CHL1     C6       CEL1    -0.150000       12.0110           0
     24208 MEMB     195      CHL1     H6       HEL1     0.150000       1.00800           0
     24209 MEMB     195      CHL1     C7       CRL2    -0.180000       12.0110           0
     24210 MEMB     195      CHL1     H7A      HGA2     0.900000E-01   1.00800           0
     24211 MEMB     195      CHL1     H7B      HGA2     0.900000E-01   1.00800           0
     24212 MEMB     195      CHL1     C8       CRL1    -0.900000E-01   12.0110           0
     24213 MEMB     195      CHL1     H8       HGA1     0.900000E-01   1.00800           0
     24214 MEMB     195      CHL1     C14      CRL1    -0.900000E-01   12.0110           0
     24215 MEMB     195      CHL1     H14      HGA1     0.900000E-01   1.00800           0
     24216 MEMB     195      CHL1     C15      CRL2    -0.180000       12.0110           0
     24217 MEMB     195      CHL1     H15A     HGA2     0.900000E-01   1.00800           0
     24218 MEMB     195      CHL1     H15B     HGA2     0.900000E-01   1.00800           0
     24219 MEMB     195      CHL1     C16      CRL2    -0.180000       12.0110           0
     24220 MEMB     195      CHL1     H16A     HGA2     0.900000E-01   1.00800           0
     24221 MEMB     195      CHL1     H16B     HGA2     0.900000E-01   1.00800           0
     24222 MEMB     195      CHL1     C17      CRL1    -0.900000E-01   12.0110           0
     24223 MEMB     195      CHL1     H17      HGA1     0.900000E-01   1.00800           0
     24224 MEMB     195      CHL1     C13      CRL1      0.00000       12.0110           0
     24225 MEMB     195      CHL1     C18      CTL3    -0.270000       12.0110           0
     24226 MEMB     195      CHL1     H18A     HAL3     0.900000E-01   1.00800           0
     24227 MEMB     195      CHL1     H18B     HAL3     0.900000E-01   1.00800           0
     24228 MEMB     195      CHL1     H18C     HAL3     0.900000E-01   1.00800           0
     24229 MEMB     195      CHL1     C12      CRL2    -0.180000       12.0110           0
     24230 MEMB     195      CHL1     H12A     HGA2     0.900000E-01   1.00800           0
     24231 MEMB     195      CHL1     H12B     HGA2     0.900000E-01   1.00800           0
     24232 MEMB     195      CHL1     C11      CRL2    -0.180000       12.0110           0
     24233 MEMB     195      CHL1     H11A     HGA2     0.900000E-01   1.00800           0
     24234 MEMB     195      CHL1     H11B     HGA2     0.900000E-01   1.00800           0
     24235 MEMB     195      CHL1     C9       CRL1    -0.900000E-01   12.0110           0
     24236 MEMB     195      CHL1     H9       HGA1     0.900000E-01   1.00800           0
     24237 MEMB     195      CHL1     C10      CRL1      0.00000       12.0110           0
     24238 MEMB     195      CHL1     C19      CTL3    -0.270000       12.0110           0
     24239 MEMB     195      CHL1     H19A     HAL3     0.900000E-01   1.00800           0
     24240 MEMB     195      CHL1     H19B     HAL3     0.900000E-01   1.00800           0
     24241 MEMB     195      CHL1     H19C     HAL3     0.900000E-01   1.00800           0
     24242 MEMB     195      CHL1     C1       CRL2    -0.180000       12.0110           0
     24243 MEMB     195      CHL1     H1A      HGA2     0.900000E-01   1.00800           0
     24244 MEMB     195      CHL1     H1B      HGA2     0.900000E-01   1.00800           0
     24245 MEMB     195      CHL1     C2       CRL2    -0.180000       12.0110           0
     24246 MEMB     195      CHL1     H2A      HGA2     0.900000E-01   1.00800           0
     24247 MEMB     195      CHL1     H2B      HGA2     0.900000E-01   1.00800           0
     24248 MEMB     195      CHL1     C20      CTL1    -0.900000E-01   12.0110           0
     24249 MEMB     195      CHL1     H20      HAL1     0.900000E-01   1.00800           0
     24250 MEMB     195      CHL1     C21      CTL3    -0.270000       12.0110           0
     24251 MEMB     195      CHL1     H21A     HAL3     0.900000E-01   1.00800           0
     24252 MEMB     195      CHL1     H21B     HAL3     0.900000E-01   1.00800           0
     24253 MEMB     195      CHL1     H21C     HAL3     0.900000E-01   1.00800           0
     24254 MEMB     195      CHL1     C22      CTL2    -0.180000       12.0110           0
     24255 MEMB     195      CHL1     H22A     HAL2     0.900000E-01   1.00800           0
     24256 MEMB     195      CHL1     H22B     HAL2     0.900000E-01   1.00800           0
     24257 MEMB     195      CHL1     C23      CTL2    -0.180000       12.0110           0
     24258 MEMB     195      CHL1     H23A     HAL2     0.900000E-01   1.00800           0
     24259 MEMB     195      CHL1     H23B     HAL2     0.900000E-01   1.00800           0
     24260 MEMB     195      CHL1     C24      CTL2    -0.180000       12.0110           0
     24261 MEMB     195      CHL1     H24A     HAL2     0.900000E-01   1.00800           0
     24262 MEMB     195      CHL1     H24B     HAL2     0.900000E-01   1.00800           0
     24263 MEMB     195      CHL1     C25      CTL1    -0.900000E-01   12.0110           0
     24264 MEMB     195      CHL1     H25      HAL1     0.900000E-01   1.00800           0
     24265 MEMB     195      CHL1     C26      CTL3    -0.270000       12.0110           0
     24266 MEMB     195      CHL1     H26A     HAL3     0.900000E-01   1.00800           0
     24267 MEMB     195      CHL1     H26B     HAL3     0.900000E-01   1.00800           0
     24268 MEMB     195      CHL1     H26C     HAL3     0.900000E-01   1.00800           0
     24269 MEMB     195      CHL1     C27      CTL3    -0.270000       12.0110           0
     24270 MEMB     195      CHL1     H27A     HAL3     0.900000E-01   1.00800           0
     24271 MEMB     195      CHL1     H27B     HAL3     0.900000E-01   1.00800           0
     24272 MEMB     195      CHL1     H27C     HAL3     0.900000E-01   1.00800           0
     24273 MEMB     196      DOPE     N        NH3L    -0.300000       14.0070           0
     24274 MEMB     196      DOPE     HN1      HCL      0.330000       1.00800           0
     24275 MEMB     196      DOPE     HN2      HCL      0.330000       1.00800           0
     24276 MEMB     196      DOPE     HN3      HCL      0.330000       1.00800           0
     24277 MEMB     196      DOPE     C12      CTL2     0.130000       12.0110           0
     24278 MEMB     196      DOPE     H12A     HAL2     0.900000E-01   1.00800           0
     24279 MEMB     196      DOPE     H12B     HAL2     0.900000E-01   1.00800           0
     24280 MEMB     196      DOPE     C11      CTL2    -0.800000E-01   12.0110           0
     24281 MEMB     196      DOPE     H11A     HAL2     0.900000E-01   1.00800           0
     24282 MEMB     196      DOPE     H11B     HAL2     0.900000E-01   1.00800           0
     24283 MEMB     196      DOPE     P        PL        1.50000       30.9740           0
     24284 MEMB     196      DOPE     O13      O2L     -0.780000       15.9994           0
     24285 MEMB     196      DOPE     O14      O2L     -0.780000       15.9994           0
     24286 MEMB     196      DOPE     O11      OSLP    -0.570000       15.9994           0
     24287 MEMB     196      DOPE     O12      OSLP    -0.570000       15.9994           0
     24288 MEMB     196      DOPE     C1       CTL2    -0.800000E-01   12.0110           0
     24289 MEMB     196      DOPE     HA       HAL2     0.900000E-01   1.00800           0
     24290 MEMB     196      DOPE     HB       HAL2     0.900000E-01   1.00800           0
     24291 MEMB     196      DOPE     C2       CTL1     0.170000       12.0110           0
     24292 MEMB     196      DOPE     HS       HAL1     0.900000E-01   1.00800           0
     24293 MEMB     196      DOPE     O21      OSL     -0.490000       15.9994           0
     24294 MEMB     196      DOPE     C21      CL       0.900000       12.0110           0
     24295 MEMB     196      DOPE     O22      OBL     -0.630000       15.9994           0
     24296 MEMB     196      DOPE     C22      CTL2    -0.220000       12.0110           0
     24297 MEMB     196      DOPE     H2R      HAL2     0.900000E-01   1.00800           0
     24298 MEMB     196      DOPE     H2S      HAL2     0.900000E-01   1.00800           0
     24299 MEMB     196      DOPE     C3       CTL2     0.800000E-01   12.0110           0
     24300 MEMB     196      DOPE     HX       HAL2     0.900000E-01   1.00800           0
     24301 MEMB     196      DOPE     HY       HAL2     0.900000E-01   1.00800           0
     24302 MEMB     196      DOPE     O31      OSL     -0.490000       15.9994           0
     24303 MEMB     196      DOPE     C31      CL       0.900000       12.0110           0
     24304 MEMB     196      DOPE     O32      OBL     -0.630000       15.9994           0
     24305 MEMB     196      DOPE     C32      CTL2    -0.220000       12.0110           0
     24306 MEMB     196      DOPE     H2X      HAL2     0.900000E-01   1.00800           0
     24307 MEMB     196      DOPE     H2Y      HAL2     0.900000E-01   1.00800           0
     24308 MEMB     196      DOPE     C23      CTL2    -0.180000       12.0110           0
     24309 MEMB     196      DOPE     H3R      HAL2     0.900000E-01   1.00800           0
     24310 MEMB     196      DOPE     H3S      HAL2     0.900000E-01   1.00800           0
     24311 MEMB     196      DOPE     C24      CTL2    -0.180000       12.0110           0
     24312 MEMB     196      DOPE     H4R      HAL2     0.900000E-01   1.00800           0
     24313 MEMB     196      DOPE     H4S      HAL2     0.900000E-01   1.00800           0
     24314 MEMB     196      DOPE     C25      CTL2    -0.180000       12.0110           0
     24315 MEMB     196      DOPE     H5R      HAL2     0.900000E-01   1.00800           0
     24316 MEMB     196      DOPE     H5S      HAL2     0.900000E-01   1.00800           0
     24317 MEMB     196      DOPE     C26      CTL2    -0.180000       12.0110           0
     24318 MEMB     196      DOPE     H6R      HAL2     0.900000E-01   1.00800           0
     24319 MEMB     196      DOPE     H6S      HAL2     0.900000E-01   1.00800           0
     24320 MEMB     196      DOPE     C27      CTL2    -0.180000       12.0110           0
     24321 MEMB     196      DOPE     H7R      HAL2     0.900000E-01   1.00800           0
     24322 MEMB     196      DOPE     H7S      HAL2     0.900000E-01   1.00800           0
     24323 MEMB     196      DOPE     C28      CTL2    -0.180000       12.0110           0
     24324 MEMB     196      DOPE     H8R      HAL2     0.900000E-01   1.00800           0
     24325 MEMB     196      DOPE     H8S      HAL2     0.900000E-01   1.00800           0
     24326 MEMB     196      DOPE     C29      CEL1    -0.150000       12.0110           0
     24327 MEMB     196      DOPE     H9R      HEL1     0.150000       1.00800           0
     24328 MEMB     196      DOPE     C210     CEL1    -0.150000       12.0110           0
     24329 MEMB     196      DOPE     H10R     HEL1     0.150000       1.00800           0
     24330 MEMB     196      DOPE     C211     CTL2    -0.180000       12.0110           0
     24331 MEMB     196      DOPE     H11R     HAL2     0.900000E-01   1.00800           0
     24332 MEMB     196      DOPE     H11S     HAL2     0.900000E-01   1.00800           0
     24333 MEMB     196      DOPE     C212     CTL2    -0.180000       12.0110           0
     24334 MEMB     196      DOPE     H12R     HAL2     0.900000E-01   1.00800           0
     24335 MEMB     196      DOPE     H12S     HAL2     0.900000E-01   1.00800           0
     24336 MEMB     196      DOPE     C213     CTL2    -0.180000       12.0110           0
     24337 MEMB     196      DOPE     H13R     HAL2     0.900000E-01   1.00800           0
     24338 MEMB     196      DOPE     H13S     HAL2     0.900000E-01   1.00800           0
     24339 MEMB     196      DOPE     C214     CTL2    -0.180000       12.0110           0
     24340 MEMB     196      DOPE     H14R     HAL2     0.900000E-01   1.00800           0
     24341 MEMB     196      DOPE     H14S     HAL2     0.900000E-01   1.00800           0
     24342 MEMB     196      DOPE     C215     CTL2    -0.180000       12.0110           0
     24343 MEMB     196      DOPE     H15R     HAL2     0.900000E-01   1.00800           0
     24344 MEMB     196      DOPE     H15S     HAL2     0.900000E-01   1.00800           0
     24345 MEMB     196      DOPE     C216     CTL2    -0.180000       12.0110           0
     24346 MEMB     196      DOPE     H16R     HAL2     0.900000E-01   1.00800           0
     24347 MEMB     196      DOPE     H16S     HAL2     0.900000E-01   1.00800           0
     24348 MEMB     196      DOPE     C217     CTL2    -0.180000       12.0110           0
     24349 MEMB     196      DOPE     H17R     HAL2     0.900000E-01   1.00800           0
     24350 MEMB     196      DOPE     H17S     HAL2     0.900000E-01   1.00800           0
     24351 MEMB     196      DOPE     C218     CTL3    -0.270000       12.0110           0
     24352 MEMB     196      DOPE     H18R     HAL3     0.900000E-01   1.00800           0
     24353 MEMB     196      DOPE     H18S     HAL3     0.900000E-01   1.00800           0
     24354 MEMB     196      DOPE     H18T     HAL3     0.900000E-01   1.00800           0
     24355 MEMB     196      DOPE     C33      CTL2    -0.180000       12.0110           0
     24356 MEMB     196      DOPE     H3X      HAL2     0.900000E-01   1.00800           0
     24357 MEMB     196      DOPE     H3Y      HAL2     0.900000E-01   1.00800           0
     24358 MEMB     196      DOPE     C34      CTL2    -0.180000       12.0110           0
     24359 MEMB     196      DOPE     H4X      HAL2     0.900000E-01   1.00800           0
     24360 MEMB     196      DOPE     H4Y      HAL2     0.900000E-01   1.00800           0
     24361 MEMB     196      DOPE     C35      CTL2    -0.180000       12.0110           0
     24362 MEMB     196      DOPE     H5X      HAL2     0.900000E-01   1.00800           0
     24363 MEMB     196      DOPE     H5Y      HAL2     0.900000E-01   1.00800           0
     24364 MEMB     196      DOPE     C36      CTL2    -0.180000       12.0110           0
     24365 MEMB     196      DOPE     H6X      HAL2     0.900000E-01   1.00800           0
     24366 MEMB     196      DOPE     H6Y      HAL2     0.900000E-01   1.00800           0
     24367 MEMB     196      DOPE     C37      CTL2    -0.180000       12.0110           0
     24368 MEMB     196      DOPE     H7X      HAL2     0.900000E-01   1.00800           0
     24369 MEMB     196      DOPE     H7Y      HAL2     0.900000E-01   1.00800           0
     24370 MEMB     196      DOPE     C38      CTL2    -0.180000       12.0110           0
     24371 MEMB     196      DOPE     H8X      HAL2     0.900000E-01   1.00800           0
     24372 MEMB     196      DOPE     H8Y      HAL2     0.900000E-01   1.00800           0
     24373 MEMB     196      DOPE     C39      CEL1    -0.150000       12.0110           0
     24374 MEMB     196      DOPE     H9X      HEL1     0.150000       1.00800           0
     24375 MEMB     196      DOPE     C310     CEL1    -0.150000       12.0110           0
     24376 MEMB     196      DOPE     H10X     HEL1     0.150000       1.00800           0
     24377 MEMB     196      DOPE     C311     CTL2    -0.180000       12.0110           0
     24378 MEMB     196      DOPE     H11X     HAL2     0.900000E-01   1.00800           0
     24379 MEMB     196      DOPE     H11Y     HAL2     0.900000E-01   1.00800           0
     24380 MEMB     196      DOPE     C312     CTL2    -0.180000       12.0110           0
     24381 MEMB     196      DOPE     H12X     HAL2     0.900000E-01   1.00800           0
     24382 MEMB     196      DOPE     H12Y     HAL2     0.900000E-01   1.00800           0
     24383 MEMB     196      DOPE     C313     CTL2    -0.180000       12.0110           0
     24384 MEMB     196      DOPE     H13X     HAL2     0.900000E-01   1.00800           0
     24385 MEMB     196      DOPE     H13Y     HAL2     0.900000E-01   1.00800           0
     24386 MEMB     196      DOPE     C314     CTL2    -0.180000       12.0110           0
     24387 MEMB     196      DOPE     H14X     HAL2     0.900000E-01   1.00800           0
     24388 MEMB     196      DOPE     H14Y     HAL2     0.900000E-01   1.00800           0
     24389 MEMB     196      DOPE     C315     CTL2    -0.180000       12.0110           0
     24390 MEMB     196      DOPE     H15X     HAL2     0.900000E-01   1.00800           0
     24391 MEMB     196      DOPE     H15Y     HAL2     0.900000E-01   1.00800           0
     24392 MEMB     196      DOPE     C316     CTL2    -0.180000       12.0110           0
     24393 MEMB     196      DOPE     H16X     HAL2     0.900000E-01   1.00800           0
     24394 MEMB     196      DOPE     H16Y     HAL2     0.900000E-01   1.00800           0
     24395 MEMB     196      DOPE     C317     CTL2    -0.180000       12.0110           0
     24396 MEMB     196      DOPE     H17X     HAL2     0.900000E-01   1.00800           0
     24397 MEMB     196      DOPE     H17Y     HAL2     0.900000E-01   1.00800           0
     24398 MEMB     196      DOPE     C318     CTL3    -0.270000       12.0110           0
     24399 MEMB     196      DOPE     H18X     HAL3     0.900000E-01   1.00800           0
     24400 MEMB     196      DOPE     H18Y     HAL3     0.900000E-01   1.00800           0
     24401 MEMB     196      DOPE     H18Z     HAL3     0.900000E-01   1.00800           0
     24402 MEMB     197      23SM     N        NTL     -0.600000       14.0070           0
     24403 MEMB     197      23SM     C15      CTL5    -0.350000       12.0110           0
     24404 MEMB     197      23SM     H15A     HL       0.250000       1.00800           0
     24405 MEMB     197      23SM     H15B     HL       0.250000       1.00800           0
     24406 MEMB     197      23SM     H15C     HL       0.250000       1.00800           0
     24407 MEMB     197      23SM     C14      CTL5    -0.350000       12.0110           0
     24408 MEMB     197      23SM     H14A     HL       0.250000       1.00800           0
     24409 MEMB     197      23SM     H14B     HL       0.250000       1.00800           0
     24410 MEMB     197      23SM     H14C     HL       0.250000       1.00800           0
     24411 MEMB     197      23SM     C13      CTL5    -0.350000       12.0110           0
     24412 MEMB     197      23SM     H13A     HL       0.250000       1.00800           0
     24413 MEMB     197      23SM     H13B     HL       0.250000       1.00800           0
     24414 MEMB     197      23SM     H13C     HL       0.250000       1.00800           0
     24415 MEMB     197      23SM     C12      CTL2    -0.100000       12.0110           0
     24416 MEMB     197      23SM     H12A     HL       0.250000       1.00800           0
     24417 MEMB     197      23SM     H12B     HL       0.250000       1.00800           0
     24418 MEMB     197      23SM     C11      CTL2    -0.800000E-01   12.0110           0
     24419 MEMB     197      23SM     H11A     HAL2     0.900000E-01   1.00800           0
     24420 MEMB     197      23SM     H11B     HAL2     0.900000E-01   1.00800           0
     24421 MEMB     197      23SM     P        PL        1.50000       30.9740           0
     24422 MEMB     197      23SM     O13      O2L     -0.780000       15.9994           0
     24423 MEMB     197      23SM     O14      O2L     -0.780000       15.9994           0
     24424 MEMB     197      23SM     O11      OSLP    -0.570000       15.9994           0
     24425 MEMB     197      23SM     O12      OSLP    -0.570000       15.9994           0
     24426 MEMB     197      23SM     C1S      CTL2    -0.800000E-01   12.0110           0
     24427 MEMB     197      23SM     H1S      HAL2     0.900000E-01   1.00800           0
     24428 MEMB     197      23SM     H1T      HAL2     0.900000E-01   1.00800           0
     24429 MEMB     197      23SM     NF       NHL     -0.700000       14.0070           0
     24430 MEMB     197      23SM     HNF      H        0.350000       1.00800           0
     24431 MEMB     197      23SM     C2S      CTL1     0.300000       12.0110           0
     24432 MEMB     197      23SM     H2S      HAL1     0.500000E-01   1.00800           0
     24433 MEMB     197      23SM     C3S      CTO1     0.500000       12.0110           0
     24434 MEMB     197      23SM     H3S      HAL1    -0.110000       1.00800           0
     24435 MEMB     197      23SM     O3       OHL     -0.690000       15.9994           0
     24436 MEMB     197      23SM     HO3      HOL      0.300000       1.00800           0
     24437 MEMB     197      23SM     C4S      CEL3    -0.150000       12.0110           0
     24438 MEMB     197      23SM     H4S      HEL1     0.150000       1.00800           0
     24439 MEMB     197      23SM     C5S      CEL3    -0.150000       12.0110           0
     24440 MEMB     197      23SM     H5S      HEL1     0.150000       1.00800           0
     24441 MEMB     197      23SM     C6S      CTL2    -0.180000       12.0110           0
     24442 MEMB     197      23SM     H6S      HAL2     0.900000E-01   1.00800           0
     24443 MEMB     197      23SM     H6T      HAL2     0.900000E-01   1.00800           0
     24444 MEMB     197      23SM     C7S      CTL2    -0.180000       12.0110           0
     24445 MEMB     197      23SM     H7S      HAL2     0.900000E-01   1.00800           0
     24446 MEMB     197      23SM     H7T      HAL2     0.900000E-01   1.00800           0
     24447 MEMB     197      23SM     C8S      CTL2    -0.180000       12.0110           0
     24448 MEMB     197      23SM     H8S      HAL2     0.900000E-01   1.00800           0
     24449 MEMB     197      23SM     H8T      HAL2     0.900000E-01   1.00800           0
     24450 MEMB     197      23SM     C9S      CTL2    -0.180000       12.0110           0
     24451 MEMB     197      23SM     H9S      HAL2     0.900000E-01   1.00800           0
     24452 MEMB     197      23SM     H9T      HAL2     0.900000E-01   1.00800           0
     24453 MEMB     197      23SM     C10S     CTL2    -0.180000       12.0110           0
     24454 MEMB     197      23SM     H10S     HAL2     0.900000E-01   1.00800           0
     24455 MEMB     197      23SM     H10T     HAL2     0.900000E-01   1.00800           0
     24456 MEMB     197      23SM     C11S     CTL2    -0.180000       12.0110           0
     24457 MEMB     197      23SM     H11S     HAL2     0.900000E-01   1.00800           0
     24458 MEMB     197      23SM     H11T     HAL2     0.900000E-01   1.00800           0
     24459 MEMB     197      23SM     C12S     CTL2    -0.180000       12.0110           0
     24460 MEMB     197      23SM     H12S     HAL2     0.900000E-01   1.00800           0
     24461 MEMB     197      23SM     H12T     HAL2     0.900000E-01   1.00800           0
     24462 MEMB     197      23SM     C13S     CTL2    -0.180000       12.0110           0
     24463 MEMB     197      23SM     H13S     HAL2     0.900000E-01   1.00800           0
     24464 MEMB     197      23SM     H13T     HAL2     0.900000E-01   1.00800           0
     24465 MEMB     197      23SM     C14S     CTL2    -0.180000       12.0110           0
     24466 MEMB     197      23SM     H14S     HAL2     0.900000E-01   1.00800           0
     24467 MEMB     197      23SM     H14T     HAL2     0.900000E-01   1.00800           0
     24468 MEMB     197      23SM     C15S     CTL2    -0.180000       12.0110           0
     24469 MEMB     197      23SM     H15S     HAL2     0.900000E-01   1.00800           0
     24470 MEMB     197      23SM     H15T     HAL2     0.900000E-01   1.00800           0
     24471 MEMB     197      23SM     C16S     CTL2    -0.180000       12.0110           0
     24472 MEMB     197      23SM     H16S     HAL2     0.900000E-01   1.00800           0
     24473 MEMB     197      23SM     H16T     HAL2     0.900000E-01   1.00800           0
     24474 MEMB     197      23SM     C17S     CTL2    -0.180000       12.0110           0
     24475 MEMB     197      23SM     H17S     HAL2     0.900000E-01   1.00800           0
     24476 MEMB     197      23SM     H17T     HAL2     0.900000E-01   1.00800           0
     24477 MEMB     197      23SM     C18S     CTL3    -0.270000       12.0110           0
     24478 MEMB     197      23SM     H18S     HAL3     0.900000E-01   1.00800           0
     24479 MEMB     197      23SM     H18T     HAL3     0.900000E-01   1.00800           0
     24480 MEMB     197      23SM     H18U     HAL3     0.900000E-01   1.00800           0
     24481 MEMB     197      23SM     C1F      C        0.550000       12.0110           0
     24482 MEMB     197      23SM     OF       O       -0.600000       15.9994           0
     24483 MEMB     197      23SM     C2F      CTL2    -0.700000E-01   12.0110           0
     24484 MEMB     197      23SM     H2F      HAL2     0.600000E-01   1.00800           0
     24485 MEMB     197      23SM     H2G      HAL2     0.600000E-01   1.00800           0
     24486 MEMB     197      23SM     C3F      CTL2    -0.180000       12.0110           0
     24487 MEMB     197      23SM     H3F      HAL2     0.900000E-01   1.00800           0
     24488 MEMB     197      23SM     H3G      HAL2     0.900000E-01   1.00800           0
     24489 MEMB     197      23SM     C4F      CTL2    -0.180000       12.0110           0
     24490 MEMB     197      23SM     H4F      HAL2     0.900000E-01   1.00800           0
     24491 MEMB     197      23SM     H4G      HAL2     0.900000E-01   1.00800           0
     24492 MEMB     197      23SM     C5F      CTL2    -0.180000       12.0110           0
     24493 MEMB     197      23SM     H5F      HAL2     0.900000E-01   1.00800           0
     24494 MEMB     197      23SM     H5G      HAL2     0.900000E-01   1.00800           0
     24495 MEMB     197      23SM     C6F      CTL2    -0.180000       12.0110           0
     24496 MEMB     197      23SM     H6F      HAL2     0.900000E-01   1.00800           0
     24497 MEMB     197      23SM     H6G      HAL2     0.900000E-01   1.00800           0
     24498 MEMB     197      23SM     C7F      CTL2    -0.180000       12.0110           0
     24499 MEMB     197      23SM     H7F      HAL2     0.900000E-01   1.00800           0
     24500 MEMB     197      23SM     H7G      HAL2     0.900000E-01   1.00800           0
     24501 MEMB     197      23SM     C8F      CTL2    -0.180000       12.0110           0
     24502 MEMB     197      23SM     H8F      HAL2     0.900000E-01   1.00800           0
     24503 MEMB     197      23SM     H8G      HAL2     0.900000E-01   1.00800           0
     24504 MEMB     197      23SM     C9F      CTL2    -0.180000       12.0110           0
     24505 MEMB     197      23SM     H9F      HAL2     0.900000E-01   1.00800           0
     24506 MEMB     197      23SM     H9G      HAL2     0.900000E-01   1.00800           0
     24507 MEMB     197      23SM     C10F     CTL2    -0.180000       12.0110           0
     24508 MEMB     197      23SM     H10F     HAL2     0.900000E-01   1.00800           0
     24509 MEMB     197      23SM     H10G     HAL2     0.900000E-01   1.00800           0
     24510 MEMB     197      23SM     C11F     CTL2    -0.180000       12.0110           0
     24511 MEMB     197      23SM     H11F     HAL2     0.900000E-01   1.00800           0
     24512 MEMB     197      23SM     H11G     HAL2     0.900000E-01   1.00800           0
     24513 MEMB     197      23SM     C12F     CTL2    -0.180000       12.0110           0
     24514 MEMB     197      23SM     H12F     HAL2     0.900000E-01   1.00800           0
     24515 MEMB     197      23SM     H12G     HAL2     0.900000E-01   1.00800           0
     24516 MEMB     197      23SM     C13F     CTL2    -0.180000       12.0110           0
     24517 MEMB     197      23SM     H13F     HAL2     0.900000E-01   1.00800           0
     24518 MEMB     197      23SM     H13G     HAL2     0.900000E-01   1.00800           0
     24519 MEMB     197      23SM     C14F     CTL2    -0.180000       12.0110           0
     24520 MEMB     197      23SM     H14F     HAL2     0.900000E-01   1.00800           0
     24521 MEMB     197      23SM     H14G     HAL2     0.900000E-01   1.00800           0
     24522 MEMB     197      23SM     C15F     CTL2    -0.180000       12.0110           0
     24523 MEMB     197      23SM     H15F     HAL2     0.900000E-01   1.00800           0
     24524 MEMB     197      23SM     H15G     HAL2     0.900000E-01   1.00800           0
     24525 MEMB     197      23SM     C16F     CTL2    -0.180000       12.0110           0
     24526 MEMB     197      23SM     H16F     HAL2     0.900000E-01   1.00800           0
     24527 MEMB     197      23SM     H16G     HAL2     0.900000E-01   1.00800           0
     24528 MEMB     197      23SM     C17F     CTL2    -0.180000       12.0110           0
     24529 MEMB     197      23SM     H17F     HAL2     0.900000E-01   1.00800           0
     24530 MEMB     197      23SM     H17G     HAL2     0.900000E-01   1.00800           0
     24531 MEMB     197      23SM     C18F     CTL2    -0.180000       12.0110           0
     24532 MEMB     197      23SM     H18F     HAL2     0.900000E-01   1.00800           0
     24533 MEMB     197      23SM     H18G     HAL2     0.900000E-01   1.00800           0
     24534 MEMB     197      23SM     C19F     CTL2    -0.180000       12.0110           0
     24535 MEMB     197      23SM     H19F     HAL2     0.900000E-01   1.00800           0
     24536 MEMB     197      23SM     H19G     HAL2     0.900000E-01   1.00800           0
     24537 MEMB     197      23SM     C20F     CTL2    -0.180000       12.0110           0
     24538 MEMB     197      23SM     H20F     HAL2     0.900000E-01   1.00800           0
     24539 MEMB     197      23SM     H20G     HAL2     0.900000E-01   1.00800           0
     24540 MEMB     197      23SM     C21F     CTL2    -0.180000       12.0110           0
     24541 MEMB     197      23SM     H21F     HAL2     0.900000E-01   1.00800           0
     24542 MEMB     197      23SM     H21G     HAL2     0.900000E-01   1.00800           0
     24543 MEMB     197      23SM     C22F     CTL2    -0.180000       12.0110           0
     24544 MEMB     197      23SM     H22F     HAL2     0.900000E-01   1.00800           0
     24545 MEMB     197      23SM     H22G     HAL2     0.900000E-01   1.00800           0
     24546 MEMB     197      23SM     C23F     CTL3    -0.270000       12.0110           0
     24547 MEMB     197      23SM     H23F     HAL3     0.900000E-01   1.00800           0
     24548 MEMB     197      23SM     H23G     HAL3     0.900000E-01   1.00800           0
     24549 MEMB     197      23SM     H23H     HAL3     0.900000E-01   1.00800           0
     24550 MEMB     198      CHL1     C3       CRL1     0.140000       12.0110           0
     24551 MEMB     198      CHL1     H3       HGA1     0.900000E-01   1.00800           0
     24552 MEMB     198      CHL1     O3       OHL     -0.660000       15.9994           0
     24553 MEMB     198      CHL1     H3'      HOL      0.430000       1.00800           0
     24554 MEMB     198      CHL1     C4       CRL2    -0.180000       12.0110           0
     24555 MEMB     198      CHL1     H4A      HGA2     0.900000E-01   1.00800           0
     24556 MEMB     198      CHL1     H4B      HGA2     0.900000E-01   1.00800           0
     24557 MEMB     198      CHL1     C5       CEL1      0.00000       12.0110           0
     24558 MEMB     198      CHL1     C6       CEL1    -0.150000       12.0110           0
     24559 MEMB     198      CHL1     H6       HEL1     0.150000       1.00800           0
     24560 MEMB     198      CHL1     C7       CRL2    -0.180000       12.0110           0
     24561 MEMB     198      CHL1     H7A      HGA2     0.900000E-01   1.00800           0
     24562 MEMB     198      CHL1     H7B      HGA2     0.900000E-01   1.00800           0
     24563 MEMB     198      CHL1     C8       CRL1    -0.900000E-01   12.0110           0
     24564 MEMB     198      CHL1     H8       HGA1     0.900000E-01   1.00800           0
     24565 MEMB     198      CHL1     C14      CRL1    -0.900000E-01   12.0110           0
     24566 MEMB     198      CHL1     H14      HGA1     0.900000E-01   1.00800           0
     24567 MEMB     198      CHL1     C15      CRL2    -0.180000       12.0110           0
     24568 MEMB     198      CHL1     H15A     HGA2     0.900000E-01   1.00800           0
     24569 MEMB     198      CHL1     H15B     HGA2     0.900000E-01   1.00800           0
     24570 MEMB     198      CHL1     C16      CRL2    -0.180000       12.0110           0
     24571 MEMB     198      CHL1     H16A     HGA2     0.900000E-01   1.00800           0
     24572 MEMB     198      CHL1     H16B     HGA2     0.900000E-01   1.00800           0
     24573 MEMB     198      CHL1     C17      CRL1    -0.900000E-01   12.0110           0
     24574 MEMB     198      CHL1     H17      HGA1     0.900000E-01   1.00800           0
     24575 MEMB     198      CHL1     C13      CRL1      0.00000       12.0110           0
     24576 MEMB     198      CHL1     C18      CTL3    -0.270000       12.0110           0
     24577 MEMB     198      CHL1     H18A     HAL3     0.900000E-01   1.00800           0
     24578 MEMB     198      CHL1     H18B     HAL3     0.900000E-01   1.00800           0
     24579 MEMB     198      CHL1     H18C     HAL3     0.900000E-01   1.00800           0
     24580 MEMB     198      CHL1     C12      CRL2    -0.180000       12.0110           0
     24581 MEMB     198      CHL1     H12A     HGA2     0.900000E-01   1.00800           0
     24582 MEMB     198      CHL1     H12B     HGA2     0.900000E-01   1.00800           0
     24583 MEMB     198      CHL1     C11      CRL2    -0.180000       12.0110           0
     24584 MEMB     198      CHL1     H11A     HGA2     0.900000E-01   1.00800           0
     24585 MEMB     198      CHL1     H11B     HGA2     0.900000E-01   1.00800           0
     24586 MEMB     198      CHL1     C9       CRL1    -0.900000E-01   12.0110           0
     24587 MEMB     198      CHL1     H9       HGA1     0.900000E-01   1.00800           0
     24588 MEMB     198      CHL1     C10      CRL1      0.00000       12.0110           0
     24589 MEMB     198      CHL1     C19      CTL3    -0.270000       12.0110           0
     24590 MEMB     198      CHL1     H19A     HAL3     0.900000E-01   1.00800           0
     24591 MEMB     198      CHL1     H19B     HAL3     0.900000E-01   1.00800           0
     24592 MEMB     198      CHL1     H19C     HAL3     0.900000E-01   1.00800           0
     24593 MEMB     198      CHL1     C1       CRL2    -0.180000       12.0110           0
     24594 MEMB     198      CHL1     H1A      HGA2     0.900000E-01   1.00800           0
     24595 MEMB     198      CHL1     H1B      HGA2     0.900000E-01   1.00800           0
     24596 MEMB     198      CHL1     C2       CRL2    -0.180000       12.0110           0
     24597 MEMB     198      CHL1     H2A      HGA2     0.900000E-01   1.00800           0
     24598 MEMB     198      CHL1     H2B      HGA2     0.900000E-01   1.00800           0
     24599 MEMB     198      CHL1     C20      CTL1    -0.900000E-01   12.0110           0
     24600 MEMB     198      CHL1     H20      HAL1     0.900000E-01   1.00800           0
     24601 MEMB     198      CHL1     C21      CTL3    -0.270000       12.0110           0
     24602 MEMB     198      CHL1     H21A     HAL3     0.900000E-01   1.00800           0
     24603 MEMB     198      CHL1     H21B     HAL3     0.900000E-01   1.00800           0
     24604 MEMB     198      CHL1     H21C     HAL3     0.900000E-01   1.00800           0
     24605 MEMB     198      CHL1     C22      CTL2    -0.180000       12.0110           0
     24606 MEMB     198      CHL1     H22A     HAL2     0.900000E-01   1.00800           0
     24607 MEMB     198      CHL1     H22B     HAL2     0.900000E-01   1.00800           0
     24608 MEMB     198      CHL1     C23      CTL2    -0.180000       12.0110           0
     24609 MEMB     198      CHL1     H23A     HAL2     0.900000E-01   1.00800           0
     24610 MEMB     198      CHL1     H23B     HAL2     0.900000E-01   1.00800           0
     24611 MEMB     198      CHL1     C24      CTL2    -0.180000       12.0110           0
     24612 MEMB     198      CHL1     H24A     HAL2     0.900000E-01   1.00800           0
     24613 MEMB     198      CHL1     H24B     HAL2     0.900000E-01   1.00800           0
     24614 MEMB     198      CHL1     C25      CTL1    -0.900000E-01   12.0110           0
     24615 MEMB     198      CHL1     H25      HAL1     0.900000E-01   1.00800           0
     24616 MEMB     198      CHL1     C26      CTL3    -0.270000       12.0110           0
     24617 MEMB     198      CHL1     H26A     HAL3     0.900000E-01   1.00800           0
     24618 MEMB     198      CHL1     H26B     HAL3     0.900000E-01   1.00800           0
     24619 MEMB     198      CHL1     H26C     HAL3     0.900000E-01   1.00800           0
     24620 MEMB     198      CHL1     C27      CTL3    -0.270000       12.0110           0
     24621 MEMB     198      CHL1     H27A     HAL3     0.900000E-01   1.00800           0
     24622 MEMB     198      CHL1     H27B     HAL3     0.900000E-01   1.00800           0
     24623 MEMB     198      CHL1     H27C     HAL3     0.900000E-01   1.00800           0
     24624 MEMB     199      23SM     N        NTL     -0.600000       14.0070           0
     24625 MEMB     199      23SM     C15      CTL5    -0.350000       12.0110           0
     24626 MEMB     199      23SM     H15A     HL       0.250000       1.00800           0
     24627 MEMB     199      23SM     H15B     HL       0.250000       1.00800           0
     24628 MEMB     199      23SM     H15C     HL       0.250000       1.00800           0
     24629 MEMB     199      23SM     C14      CTL5    -0.350000       12.0110           0
     24630 MEMB     199      23SM     H14A     HL       0.250000       1.00800           0
     24631 MEMB     199      23SM     H14B     HL       0.250000       1.00800           0
     24632 MEMB     199      23SM     H14C     HL       0.250000       1.00800           0
     24633 MEMB     199      23SM     C13      CTL5    -0.350000       12.0110           0
     24634 MEMB     199      23SM     H13A     HL       0.250000       1.00800           0
     24635 MEMB     199      23SM     H13B     HL       0.250000       1.00800           0
     24636 MEMB     199      23SM     H13C     HL       0.250000       1.00800           0
     24637 MEMB     199      23SM     C12      CTL2    -0.100000       12.0110           0
     24638 MEMB     199      23SM     H12A     HL       0.250000       1.00800           0
     24639 MEMB     199      23SM     H12B     HL       0.250000       1.00800           0
     24640 MEMB     199      23SM     C11      CTL2    -0.800000E-01   12.0110           0
     24641 MEMB     199      23SM     H11A     HAL2     0.900000E-01   1.00800           0
     24642 MEMB     199      23SM     H11B     HAL2     0.900000E-01   1.00800           0
     24643 MEMB     199      23SM     P        PL        1.50000       30.9740           0
     24644 MEMB     199      23SM     O13      O2L     -0.780000       15.9994           0
     24645 MEMB     199      23SM     O14      O2L     -0.780000       15.9994           0
     24646 MEMB     199      23SM     O11      OSLP    -0.570000       15.9994           0
     24647 MEMB     199      23SM     O12      OSLP    -0.570000       15.9994           0
     24648 MEMB     199      23SM     C1S      CTL2    -0.800000E-01   12.0110           0
     24649 MEMB     199      23SM     H1S      HAL2     0.900000E-01   1.00800           0
     24650 MEMB     199      23SM     H1T      HAL2     0.900000E-01   1.00800           0
     24651 MEMB     199      23SM     NF       NHL     -0.700000       14.0070           0
     24652 MEMB     199      23SM     HNF      H        0.350000       1.00800           0
     24653 MEMB     199      23SM     C2S      CTL1     0.300000       12.0110           0
     24654 MEMB     199      23SM     H2S      HAL1     0.500000E-01   1.00800           0
     24655 MEMB     199      23SM     C3S      CTO1     0.500000       12.0110           0
     24656 MEMB     199      23SM     H3S      HAL1    -0.110000       1.00800           0
     24657 MEMB     199      23SM     O3       OHL     -0.690000       15.9994           0
     24658 MEMB     199      23SM     HO3      HOL      0.300000       1.00800           0
     24659 MEMB     199      23SM     C4S      CEL3    -0.150000       12.0110           0
     24660 MEMB     199      23SM     H4S      HEL1     0.150000       1.00800           0
     24661 MEMB     199      23SM     C5S      CEL3    -0.150000       12.0110           0
     24662 MEMB     199      23SM     H5S      HEL1     0.150000       1.00800           0
     24663 MEMB     199      23SM     C6S      CTL2    -0.180000       12.0110           0
     24664 MEMB     199      23SM     H6S      HAL2     0.900000E-01   1.00800           0
     24665 MEMB     199      23SM     H6T      HAL2     0.900000E-01   1.00800           0
     24666 MEMB     199      23SM     C7S      CTL2    -0.180000       12.0110           0
     24667 MEMB     199      23SM     H7S      HAL2     0.900000E-01   1.00800           0
     24668 MEMB     199      23SM     H7T      HAL2     0.900000E-01   1.00800           0
     24669 MEMB     199      23SM     C8S      CTL2    -0.180000       12.0110           0
     24670 MEMB     199      23SM     H8S      HAL2     0.900000E-01   1.00800           0
     24671 MEMB     199      23SM     H8T      HAL2     0.900000E-01   1.00800           0
     24672 MEMB     199      23SM     C9S      CTL2    -0.180000       12.0110           0
     24673 MEMB     199      23SM     H9S      HAL2     0.900000E-01   1.00800           0
     24674 MEMB     199      23SM     H9T      HAL2     0.900000E-01   1.00800           0
     24675 MEMB     199      23SM     C10S     CTL2    -0.180000       12.0110           0
     24676 MEMB     199      23SM     H10S     HAL2     0.900000E-01   1.00800           0
     24677 MEMB     199      23SM     H10T     HAL2     0.900000E-01   1.00800           0
     24678 MEMB     199      23SM     C11S     CTL2    -0.180000       12.0110           0
     24679 MEMB     199      23SM     H11S     HAL2     0.900000E-01   1.00800           0
     24680 MEMB     199      23SM     H11T     HAL2     0.900000E-01   1.00800           0
     24681 MEMB     199      23SM     C12S     CTL2    -0.180000       12.0110           0
     24682 MEMB     199      23SM     H12S     HAL2     0.900000E-01   1.00800           0
     24683 MEMB     199      23SM     H12T     HAL2     0.900000E-01   1.00800           0
     24684 MEMB     199      23SM     C13S     CTL2    -0.180000       12.0110           0
     24685 MEMB     199      23SM     H13S     HAL2     0.900000E-01   1.00800           0
     24686 MEMB     199      23SM     H13T     HAL2     0.900000E-01   1.00800           0
     24687 MEMB     199      23SM     C14S     CTL2    -0.180000       12.0110           0
     24688 MEMB     199      23SM     H14S     HAL2     0.900000E-01   1.00800           0
     24689 MEMB     199      23SM     H14T     HAL2     0.900000E-01   1.00800           0
     24690 MEMB     199      23SM     C15S     CTL2    -0.180000       12.0110           0
     24691 MEMB     199      23SM     H15S     HAL2     0.900000E-01   1.00800           0
     24692 MEMB     199      23SM     H15T     HAL2     0.900000E-01   1.00800           0
     24693 MEMB     199      23SM     C16S     CTL2    -0.180000       12.0110           0
     24694 MEMB     199      23SM     H16S     HAL2     0.900000E-01   1.00800           0
     24695 MEMB     199      23SM     H16T     HAL2     0.900000E-01   1.00800           0
     24696 MEMB     199      23SM     C17S     CTL2    -0.180000       12.0110           0
     24697 MEMB     199      23SM     H17S     HAL2     0.900000E-01   1.00800           0
     24698 MEMB     199      23SM     H17T     HAL2     0.900000E-01   1.00800           0
     24699 MEMB     199      23SM     C18S     CTL3    -0.270000       12.0110           0
     24700 MEMB     199      23SM     H18S     HAL3     0.900000E-01   1.00800           0
     24701 MEMB     199      23SM     H18T     HAL3     0.900000E-01   1.00800           0
     24702 MEMB     199      23SM     H18U     HAL3     0.900000E-01   1.00800           0
     24703 MEMB     199      23SM     C1F      C        0.550000       12.0110           0
     24704 MEMB     199      23SM     OF       O       -0.600000       15.9994           0
     24705 MEMB     199      23SM     C2F      CTL2    -0.700000E-01   12.0110           0
     24706 MEMB     199      23SM     H2F      HAL2     0.600000E-01   1.00800           0
     24707 MEMB     199      23SM     H2G      HAL2     0.600000E-01   1.00800           0
     24708 MEMB     199      23SM     C3F      CTL2    -0.180000       12.0110           0
     24709 MEMB     199      23SM     H3F      HAL2     0.900000E-01   1.00800           0
     24710 MEMB     199      23SM     H3G      HAL2     0.900000E-01   1.00800           0
     24711 MEMB     199      23SM     C4F      CTL2    -0.180000       12.0110           0
     24712 MEMB     199      23SM     H4F      HAL2     0.900000E-01   1.00800           0
     24713 MEMB     199      23SM     H4G      HAL2     0.900000E-01   1.00800           0
     24714 MEMB     199      23SM     C5F      CTL2    -0.180000       12.0110           0
     24715 MEMB     199      23SM     H5F      HAL2     0.900000E-01   1.00800           0
     24716 MEMB     199      23SM     H5G      HAL2     0.900000E-01   1.00800           0
     24717 MEMB     199      23SM     C6F      CTL2    -0.180000       12.0110           0
     24718 MEMB     199      23SM     H6F      HAL2     0.900000E-01   1.00800           0
     24719 MEMB     199      23SM     H6G      HAL2     0.900000E-01   1.00800           0
     24720 MEMB     199      23SM     C7F      CTL2    -0.180000       12.0110           0
     24721 MEMB     199      23SM     H7F      HAL2     0.900000E-01   1.00800           0
     24722 MEMB     199      23SM     H7G      HAL2     0.900000E-01   1.00800           0
     24723 MEMB     199      23SM     C8F      CTL2    -0.180000       12.0110           0
     24724 MEMB     199      23SM     H8F      HAL2     0.900000E-01   1.00800           0
     24725 MEMB     199      23SM     H8G      HAL2     0.900000E-01   1.00800           0
     24726 MEMB     199      23SM     C9F      CTL2    -0.180000       12.0110           0
     24727 MEMB     199      23SM     H9F      HAL2     0.900000E-01   1.00800           0
     24728 MEMB     199      23SM     H9G      HAL2     0.900000E-01   1.00800           0
     24729 MEMB     199      23SM     C10F     CTL2    -0.180000       12.0110           0
     24730 MEMB     199      23SM     H10F     HAL2     0.900000E-01   1.00800           0
     24731 MEMB     199      23SM     H10G     HAL2     0.900000E-01   1.00800           0
     24732 MEMB     199      23SM     C11F     CTL2    -0.180000       12.0110           0
     24733 MEMB     199      23SM     H11F     HAL2     0.900000E-01   1.00800           0
     24734 MEMB     199      23SM     H11G     HAL2     0.900000E-01   1.00800           0
     24735 MEMB     199      23SM     C12F     CTL2    -0.180000       12.0110           0
     24736 MEMB     199      23SM     H12F     HAL2     0.900000E-01   1.00800           0
     24737 MEMB     199      23SM     H12G     HAL2     0.900000E-01   1.00800           0
     24738 MEMB     199      23SM     C13F     CTL2    -0.180000       12.0110           0
     24739 MEMB     199      23SM     H13F     HAL2     0.900000E-01   1.00800           0
     24740 MEMB     199      23SM     H13G     HAL2     0.900000E-01   1.00800           0
     24741 MEMB     199      23SM     C14F     CTL2    -0.180000       12.0110           0
     24742 MEMB     199      23SM     H14F     HAL2     0.900000E-01   1.00800           0
     24743 MEMB     199      23SM     H14G     HAL2     0.900000E-01   1.00800           0
     24744 MEMB     199      23SM     C15F     CTL2    -0.180000       12.0110           0
     24745 MEMB     199      23SM     H15F     HAL2     0.900000E-01   1.00800           0
     24746 MEMB     199      23SM     H15G     HAL2     0.900000E-01   1.00800           0
     24747 MEMB     199      23SM     C16F     CTL2    -0.180000       12.0110           0
     24748 MEMB     199      23SM     H16F     HAL2     0.900000E-01   1.00800           0
     24749 MEMB     199      23SM     H16G     HAL2     0.900000E-01   1.00800           0
     24750 MEMB     199      23SM     C17F     CTL2    -0.180000       12.0110           0
     24751 MEMB     199      23SM     H17F     HAL2     0.900000E-01   1.00800           0
     24752 MEMB     199      23SM     H17G     HAL2     0.900000E-01   1.00800           0
     24753 MEMB     199      23SM     C18F     CTL2    -0.180000       12.0110           0
     24754 MEMB     199      23SM     H18F     HAL2     0.900000E-01   1.00800           0
     24755 MEMB     199      23SM     H18G     HAL2     0.900000E-01   1.00800           0
     24756 MEMB     199      23SM     C19F     CTL2    -0.180000       12.0110           0
     24757 MEMB     199      23SM     H19F     HAL2     0.900000E-01   1.00800           0
     24758 MEMB     199      23SM     H19G     HAL2     0.900000E-01   1.00800           0
     24759 MEMB     199      23SM     C20F     CTL2    -0.180000       12.0110           0
     24760 MEMB     199      23SM     H20F     HAL2     0.900000E-01   1.00800           0
     24761 MEMB     199      23SM     H20G     HAL2     0.900000E-01   1.00800           0
     24762 MEMB     199      23SM     C21F     CTL2    -0.180000       12.0110           0
     24763 MEMB     199      23SM     H21F     HAL2     0.900000E-01   1.00800           0
     24764 MEMB     199      23SM     H21G     HAL2     0.900000E-01   1.00800           0
     24765 MEMB     199      23SM     C22F     CTL2    -0.180000       12.0110           0
     24766 MEMB     199      23SM     H22F     HAL2     0.900000E-01   1.00800           0
     24767 MEMB     199      23SM     H22G     HAL2     0.900000E-01   1.00800           0
     24768 MEMB     199      23SM     C23F     CTL3    -0.270000       12.0110           0
     24769 MEMB     199      23SM     H23F     HAL3     0.900000E-01   1.00800           0
     24770 MEMB     199      23SM     H23G     HAL3     0.900000E-01   1.00800           0
     24771 MEMB     199      23SM     H23H     HAL3     0.900000E-01   1.00800           0
     24772 MEMB     200      DOPE     N        NH3L    -0.300000       14.0070           0
     24773 MEMB     200      DOPE     HN1      HCL      0.330000       1.00800           0
     24774 MEMB     200      DOPE     HN2      HCL      0.330000       1.00800           0
     24775 MEMB     200      DOPE     HN3      HCL      0.330000       1.00800           0
     24776 MEMB     200      DOPE     C12      CTL2     0.130000       12.0110           0
     24777 MEMB     200      DOPE     H12A     HAL2     0.900000E-01   1.00800           0
     24778 MEMB     200      DOPE     H12B     HAL2     0.900000E-01   1.00800           0
     24779 MEMB     200      DOPE     C11      CTL2    -0.800000E-01   12.0110           0
     24780 MEMB     200      DOPE     H11A     HAL2     0.900000E-01   1.00800           0
     24781 MEMB     200      DOPE     H11B     HAL2     0.900000E-01   1.00800           0
     24782 MEMB     200      DOPE     P        PL        1.50000       30.9740           0
     24783 MEMB     200      DOPE     O13      O2L     -0.780000       15.9994           0
     24784 MEMB     200      DOPE     O14      O2L     -0.780000       15.9994           0
     24785 MEMB     200      DOPE     O11      OSLP    -0.570000       15.9994           0
     24786 MEMB     200      DOPE     O12      OSLP    -0.570000       15.9994           0
     24787 MEMB     200      DOPE     C1       CTL2    -0.800000E-01   12.0110           0
     24788 MEMB     200      DOPE     HA       HAL2     0.900000E-01   1.00800           0
     24789 MEMB     200      DOPE     HB       HAL2     0.900000E-01   1.00800           0
     24790 MEMB     200      DOPE     C2       CTL1     0.170000       12.0110           0
     24791 MEMB     200      DOPE     HS       HAL1     0.900000E-01   1.00800           0
     24792 MEMB     200      DOPE     O21      OSL     -0.490000       15.9994           0
     24793 MEMB     200      DOPE     C21      CL       0.900000       12.0110           0
     24794 MEMB     200      DOPE     O22      OBL     -0.630000       15.9994           0
     24795 MEMB     200      DOPE     C22      CTL2    -0.220000       12.0110           0
     24796 MEMB     200      DOPE     H2R      HAL2     0.900000E-01   1.00800           0
     24797 MEMB     200      DOPE     H2S      HAL2     0.900000E-01   1.00800           0
     24798 MEMB     200      DOPE     C3       CTL2     0.800000E-01   12.0110           0
     24799 MEMB     200      DOPE     HX       HAL2     0.900000E-01   1.00800           0
     24800 MEMB     200      DOPE     HY       HAL2     0.900000E-01   1.00800           0
     24801 MEMB     200      DOPE     O31      OSL     -0.490000       15.9994           0
     24802 MEMB     200      DOPE     C31      CL       0.900000       12.0110           0
     24803 MEMB     200      DOPE     O32      OBL     -0.630000       15.9994           0
     24804 MEMB     200      DOPE     C32      CTL2    -0.220000       12.0110           0
     24805 MEMB     200      DOPE     H2X      HAL2     0.900000E-01   1.00800           0
     24806 MEMB     200      DOPE     H2Y      HAL2     0.900000E-01   1.00800           0
     24807 MEMB     200      DOPE     C23      CTL2    -0.180000       12.0110           0
     24808 MEMB     200      DOPE     H3R      HAL2     0.900000E-01   1.00800           0
     24809 MEMB     200      DOPE     H3S      HAL2     0.900000E-01   1.00800           0
     24810 MEMB     200      DOPE     C24      CTL2    -0.180000       12.0110           0
     24811 MEMB     200      DOPE     H4R      HAL2     0.900000E-01   1.00800           0
     24812 MEMB     200      DOPE     H4S      HAL2     0.900000E-01   1.00800           0
     24813 MEMB     200      DOPE     C25      CTL2    -0.180000       12.0110           0
     24814 MEMB     200      DOPE     H5R      HAL2     0.900000E-01   1.00800           0
     24815 MEMB     200      DOPE     H5S      HAL2     0.900000E-01   1.00800           0
     24816 MEMB     200      DOPE     C26      CTL2    -0.180000       12.0110           0
     24817 MEMB     200      DOPE     H6R      HAL2     0.900000E-01   1.00800           0
     24818 MEMB     200      DOPE     H6S      HAL2     0.900000E-01   1.00800           0
     24819 MEMB     200      DOPE     C27      CTL2    -0.180000       12.0110           0
     24820 MEMB     200      DOPE     H7R      HAL2     0.900000E-01   1.00800           0
     24821 MEMB     200      DOPE     H7S      HAL2     0.900000E-01   1.00800           0
     24822 MEMB     200      DOPE     C28      CTL2    -0.180000       12.0110           0
     24823 MEMB     200      DOPE     H8R      HAL2     0.900000E-01   1.00800           0
     24824 MEMB     200      DOPE     H8S      HAL2     0.900000E-01   1.00800           0
     24825 MEMB     200      DOPE     C29      CEL1    -0.150000       12.0110           0
     24826 MEMB     200      DOPE     H9R      HEL1     0.150000       1.00800           0
     24827 MEMB     200      DOPE     C210     CEL1    -0.150000       12.0110           0
     24828 MEMB     200      DOPE     H10R     HEL1     0.150000       1.00800           0
     24829 MEMB     200      DOPE     C211     CTL2    -0.180000       12.0110           0
     24830 MEMB     200      DOPE     H11R     HAL2     0.900000E-01   1.00800           0
     24831 MEMB     200      DOPE     H11S     HAL2     0.900000E-01   1.00800           0
     24832 MEMB     200      DOPE     C212     CTL2    -0.180000       12.0110           0
     24833 MEMB     200      DOPE     H12R     HAL2     0.900000E-01   1.00800           0
     24834 MEMB     200      DOPE     H12S     HAL2     0.900000E-01   1.00800           0
     24835 MEMB     200      DOPE     C213     CTL2    -0.180000       12.0110           0
     24836 MEMB     200      DOPE     H13R     HAL2     0.900000E-01   1.00800           0
     24837 MEMB     200      DOPE     H13S     HAL2     0.900000E-01   1.00800           0
     24838 MEMB     200      DOPE     C214     CTL2    -0.180000       12.0110           0
     24839 MEMB     200      DOPE     H14R     HAL2     0.900000E-01   1.00800           0
     24840 MEMB     200      DOPE     H14S     HAL2     0.900000E-01   1.00800           0
     24841 MEMB     200      DOPE     C215     CTL2    -0.180000       12.0110           0
     24842 MEMB     200      DOPE     H15R     HAL2     0.900000E-01   1.00800           0
     24843 MEMB     200      DOPE     H15S     HAL2     0.900000E-01   1.00800           0
     24844 MEMB     200      DOPE     C216     CTL2    -0.180000       12.0110           0
     24845 MEMB     200      DOPE     H16R     HAL2     0.900000E-01   1.00800           0
     24846 MEMB     200      DOPE     H16S     HAL2     0.900000E-01   1.00800           0
     24847 MEMB     200      DOPE     C217     CTL2    -0.180000       12.0110           0
     24848 MEMB     200      DOPE     H17R     HAL2     0.900000E-01   1.00800           0
     24849 MEMB     200      DOPE     H17S     HAL2     0.900000E-01   1.00800           0
     24850 MEMB     200      DOPE     C218     CTL3    -0.270000       12.0110           0
     24851 MEMB     200      DOPE     H18R     HAL3     0.900000E-01   1.00800           0
     24852 MEMB     200      DOPE     H18S     HAL3     0.900000E-01   1.00800           0
     24853 MEMB     200      DOPE     H18T     HAL3     0.900000E-01   1.00800           0
     24854 MEMB     200      DOPE     C33      CTL2    -0.180000       12.0110           0
     24855 MEMB     200      DOPE     H3X      HAL2     0.900000E-01   1.00800           0
     24856 MEMB     200      DOPE     H3Y      HAL2     0.900000E-01   1.00800           0
     24857 MEMB     200      DOPE     C34      CTL2    -0.180000       12.0110           0
     24858 MEMB     200      DOPE     H4X      HAL2     0.900000E-01   1.00800           0
     24859 MEMB     200      DOPE     H4Y      HAL2     0.900000E-01   1.00800           0
     24860 MEMB     200      DOPE     C35      CTL2    -0.180000       12.0110           0
     24861 MEMB     200      DOPE     H5X      HAL2     0.900000E-01   1.00800           0
     24862 MEMB     200      DOPE     H5Y      HAL2     0.900000E-01   1.00800           0
     24863 MEMB     200      DOPE     C36      CTL2    -0.180000       12.0110           0
     24864 MEMB     200      DOPE     H6X      HAL2     0.900000E-01   1.00800           0
     24865 MEMB     200      DOPE     H6Y      HAL2     0.900000E-01   1.00800           0
     24866 MEMB     200      DOPE     C37      CTL2    -0.180000       12.0110           0
     24867 MEMB     200      DOPE     H7X      HAL2     0.900000E-01   1.00800           0
     24868 MEMB     200      DOPE     H7Y      HAL2     0.900000E-01   1.00800           0
     24869 MEMB     200      DOPE     C38      CTL2    -0.180000       12.0110           0
     24870 MEMB     200      DOPE     H8X      HAL2     0.900000E-01   1.00800           0
     24871 MEMB     200      DOPE     H8Y      HAL2     0.900000E-01   1.00800           0
     24872 MEMB     200      DOPE     C39      CEL1    -0.150000       12.0110           0
     24873 MEMB     200      DOPE     H9X      HEL1     0.150000       1.00800           0
     24874 MEMB     200      DOPE     C310     CEL1    -0.150000       12.0110           0
     24875 MEMB     200      DOPE     H10X     HEL1     0.150000       1.00800           0
     24876 MEMB     200      DOPE     C311     CTL2    -0.180000       12.0110           0
     24877 MEMB     200      DOPE     H11X     HAL2     0.900000E-01   1.00800           0
     24878 MEMB     200      DOPE     H11Y     HAL2     0.900000E-01   1.00800           0
     24879 MEMB     200      DOPE     C312     CTL2    -0.180000       12.0110           0
     24880 MEMB     200      DOPE     H12X     HAL2     0.900000E-01   1.00800           0
     24881 MEMB     200      DOPE     H12Y     HAL2     0.900000E-01   1.00800           0
     24882 MEMB     200      DOPE     C313     CTL2    -0.180000       12.0110           0
     24883 MEMB     200      DOPE     H13X     HAL2     0.900000E-01   1.00800           0
     24884 MEMB     200      DOPE     H13Y     HAL2     0.900000E-01   1.00800           0
     24885 MEMB     200      DOPE     C314     CTL2    -0.180000       12.0110           0
     24886 MEMB     200      DOPE     H14X     HAL2     0.900000E-01   1.00800           0
     24887 MEMB     200      DOPE     H14Y     HAL2     0.900000E-01   1.00800           0
     24888 MEMB     200      DOPE     C315     CTL2    -0.180000       12.0110           0
     24889 MEMB     200      DOPE     H15X     HAL2     0.900000E-01   1.00800           0
     24890 MEMB     200      DOPE     H15Y     HAL2     0.900000E-01   1.00800           0
     24891 MEMB     200      DOPE     C316     CTL2    -0.180000       12.0110           0
     24892 MEMB     200      DOPE     H16X     HAL2     0.900000E-01   1.00800           0
     24893 MEMB     200      DOPE     H16Y     HAL2     0.900000E-01   1.00800           0
     24894 MEMB     200      DOPE     C317     CTL2    -0.180000       12.0110           0
     24895 MEMB     200      DOPE     H17X     HAL2     0.900000E-01   1.00800           0
     24896 MEMB     200      DOPE     H17Y     HAL2     0.900000E-01   1.00800           0
     24897 MEMB     200      DOPE     C318     CTL3    -0.270000       12.0110           0
     24898 MEMB     200      DOPE     H18X     HAL3     0.900000E-01   1.00800           0
     24899 MEMB     200      DOPE     H18Y     HAL3     0.900000E-01   1.00800           0
     24900 MEMB     200      DOPE     H18Z     HAL3     0.900000E-01   1.00800           0

     24860 !NBOND: bonds
         1         2         1         3         1         4         1         5
         5         6         5         7         5         8         8         9
         8        10         8        15        15        11        11        14
        11        12        11        13        16        17        16        18
        16        19        16        14        19        20        19        27
        19        21        27        28        27        29        27        30
        21        22        22        24        22        23        24        25
        24        26        24        36        36        37        36        38
        36        39        39        40        39        41        39        42
        42        43        42        44        42        45        45        46
        45        47        45        48        48        49        48        50
        48        51        51        52        51        53        51        54
        54        55        54        56        56        57        56        58
        58        59        58        60        58        61        61        62
        61        63        61        64        64        65        64        66
        64        67        67        68        67        69        67        70
        70        71        70        72        70        73        73        74
        73        75        73        76        76        77        76        78
        76        79        79        80        79        81        79        82
        30        31        31        33        31        32        33        34
        33        35        33        83        83        84        83        85
        83        86        86        87        86        88        86        89
        89        90        89        91        89        92        92        93
        92        94        92        95        95        96        95        97
        95        98        98        99        98       100        98       101
       101       102       101       103       103       104       103       105
       105       106       105       107       105       108       108       109
       108       110       108       111       111       112       111       113
       111       114       114       115       114       116       114       117
       117       118       117       119       117       120       120       121
       120       122       120       123       123       124       123       125
       123       126       126       127       126       128       126       129
       205       206       205       207       205       208       205       202
       202       203       202       204       202       199       199       200
       199       201       199       196       196       197       196       198
       196       193       193       194       193       195       193       190
       190       191       190       192       190       187       187       188
       187       189       187       184       184       185       184       186
       184       181       181       182       181       183       181       178
       178       179       178       180       178       175       175       176
       175       177       175       172       172       173       172       174
       172       169       169       170       169       171       169       167
       167       168       165       166       165       161       161       162
       161       163       163       164       161       159       159       160
       159       154       154       155       154       156       154       152
       152       149       153       149       150       149       151       149
       153       146       146       147       146       148       146       143
       143       144       143       145       143       130       130       139
       130       135       130       131       139       140       139       141
       139       142       135       136       135       137       135       138
       131       132       131       133       131       134       159       157
       157       158       157       209       209       211       211       212
       211       213       211       214       214       215       214       216
       214       217       217       218       217       219       217       220
       220       221       220       222       220       223       223       224
       223       225       223       226       226       227       226       228
       226       229       229       230       229       231       229       232
       232       233       232       234       232       235       235       236
       235       237       235       238       238       239       238       240
       238       241       241       242       241       243       241       244
       244       245       244       246       244       247       247       248
       247       249       247       250       250       251       250       252
       250       253       253       254       253       255       253       256
       256       257       256       258       256       259       259       260
       259       261       259       262       262       263       262       264
       262       265       265       266       265       267       265       268
       268       269       268       270       268       271       271       272
       271       273       271       274       274       275       274       276
       274       277       165       167       209       210       353       354
       353       355       353       356       353       350       350       351
       350       352       350       347       347       348       347       349
       347       344       344       345       344       346       344       341
       341       342       341       343       341       338       338       339
       338       340       338       335       335       336       335       337
       335       332       332       333       332       334       332       329
       329       330       329       331       329       326       326       327
       326       328       326       323       323       324       323       325
       323       320       320       321       320       322       320       317
       317       318       317       319       317       315       315       316
       313       314       313       309       309       310       309       311
       311       312       309       307       307       308       307       302
       302       303       302       304       302       300       300       297
       301       297       298       297       299       297       301       294
       294       295       294       296       294       291       291       292
       291       293       291       278       278       287       278       283
       278       279       287       288       287       289       287       290
       283       284       283       285       283       286       279       280
       279       281       279       282       307       305       305       306
       305       357       357       359       359       360       359       361
       359       362       362       363       362       364       362       365
       365       366       365       367       365       368       368       369
       368       370       368       371       371       372       371       373
       371       374       374       375       374       376       374       377
       377       378       377       379       377       380       380       381
       380       382       380       383       383       384       383       385
       383       386       386       387       386       388       386       389
       389       390       389       391       389       392       392       393
       392       394       392       395       395       396       395       397
       395       398       398       399       398       400       398       401
       401       402       401       403       401       404       404       405
       404       406       404       407       407       408       407       409
       407       410       410       411       410       412       410       413
       413       414       413       415       413       416       416       417
       416       418       416       419       419       420       419       421
       419       422       422       423       422       424       422       425
       313       315       357       358       426       428       426       427
       428       429       426       472       472       473       472       474
       472       469       469       470       469       471       426       430
       430       431       430       432       430       433       433       464
       464       469       464       465       465       466       465       467
       465       468       433       434       434       435       434       436
       436       437       436       438       436       439       439       440
       439       462       462       463       462       464       439       441
       441       442       441       451       451       456       456       457
       456       458       456       459       459       460       459       461
       459       462       451       452       452       453       452       454
       452       455       441       443       443       444       443       445
       443       446       446       447       446       448       446       449
       449       450       449       451       449       475       475       476
       475       477       477       478       477       479       477       480
       475       481       481       482       481       483       481       484
       484       485       484       486       484       487       487       488
       487       489       487       490       490       491       490       492
       492       493       492       494       492       495       490       496
       496       497       496       498       496       499       500       501
       500       502       500       503       500       504       504       505
       504       506       504       507       507       508       507       509
       507       514       514       510       510       513       510       511
       510       512       515       516       515       517       515       518
       515       513       518       519       518       526       518       520
       526       527       526       528       526       529       520       521
       521       523       521       522       523       524       523       525
       523       535       535       536       535       537       535       538
       538       539       538       540       538       541       541       542
       541       543       541       544       544       545       544       546
       544       547       547       548       547       549       547       550
       550       551       550       552       550       553       553       554
       553       555       555       556       555       557       557       558
       557       559       557       560       560       561       560       562
       560       563       563       564       563       565       563       566
       566       567       566       568       566       569       569       570
       569       571       569       572       572       573       572       574
       572       575       575       576       575       577       575       578
       578       579       578       580       578       581       529       530
       530       532       530       531       532       533       532       534
       532       582       582       583       582       584       582       585
       585       586       585       587       585       588       588       589
       588       590       588       591       591       592       591       593
       591       594       594       595       594       596       594       597
       597       598       597       599       597       600       600       601
       600       602       602       603       602       604       604       605
       604       606       604       607       607       608       607       609
       607       610       610       611       610       612       610       613
       613       614       613       615       613       616       616       617
       616       618       616       619       619       620       619       621
       619       622       622       623       622       624       622       625
       625       626       625       627       625       628       629       633
       629       637       629       641       633       634       633       635
       633       636       637       638       637       639       637       640
       641       642       641       643       641       644       629       630
       630       631       630       632       630       645       645       646
       645       647       645       651       652       653       651       648
       648       652       648       649       648       650       653       654
       653       655       653       656       656       657       656       664
       656       658       664       665       664       666       664       667
       658       659       659       661       659       660       661       662
       661       663       661       673       673       674       673       675
       673       676       676       677       676       678       676       679
       679       680       679       681       679       682       682       683
       682       684       682       685       685       686       685       687
       685       688       688       689       688       690       688       691
       691       692       691       693       693       694       693       695
       695       696       695       697       695       698       698       699
       698       700       698       701       701       702       701       703
       701       704       704       705       704       706       704       707
       707       708       707       709       707       710       710       711
       710       712       710       713       713       714       713       715
       713       716       716       717       716       718       716       719
       667       668       668       670       668       669       670       671
       670       672       670       720       720       721       720       722
       720       723       723       724       723       725       723       726
       726       727       726       728       726       729       729       730
       729       731       729       732       732       733       732       734
       732       735       735       736       735       737       735       738
       738       739       738       740       740       741       740       742
       742       743       742       744       742       745       745       746
       745       747       745       748       748       749       748       750
       748       751       751       752       751       753       751       754
       754       755       754       756       754       757       757       758
       757       759       757       760       760       761       760       762
       760       763       763       764       763       765       763       766
       767       771       767       775       767       779       771       772
       771       773       771       774       775       776       775       777
       775       778       779       780       779       781       779       782
       767       768       768       769       768       770       768       783
       783       784       783       785       783       789       790       791
       789       786       786       790       786       787       786       788
       791       792       791       793       791       794       794       795
       794       802       794       796       802       803       802       804
       802       805       796       797       797       799       797       798
       799       800       799       801       799       811       811       812
       811       813       811       814       814       815       814       816
       814       817       817       818       817       819       817       820
       820       821       820       822       820       823       823       824
       823       825       823       826       826       827       826       828
       826       829       829       830       829       831       831       832
       831       833       833       834       833       835       833       836
       836       837       836       838       836       839       839       840
       839       841       839       842       842       843       842       844
       842       845       845       846       845       847       845       848
       848       849       848       850       848       851       851       852
       851       853       851       854       854       855       854       856
       854       857       805       806       806       808       806       807
       808       809       808       810       808       858       858       859
       858       860       858       861       861       862       861       863
       861       864       864       865       864       866       864       867
       867       868       867       869       867       870       870       871
       870       872       870       873       873       874       873       875
       873       876       876       877       876       878       878       879
       878       880       880       881       880       882       880       883
       883       884       883       885       883       886       886       887
       886       888       886       889       889       890       889       891
       889       892       892       893       892       894       892       895
       895       896       895       897       895       898       898       899
       898       900       898       901       901       902       901       903
       901       904       905       909       905       913       905       917
       909       910       909       911       909       912       913       914
       913       915       913       916       917       918       917       919
       917       920       905       906       906       907       906       908
       906       921       921       922       921       923       921       927
       928       929       927       924       924       928       924       925
       924       926       929       930       929       931       929       932
       932       933       932       940       932       934       940       941
       940       942       940       943       934       935       935       937
       935       936       937       938       937       939       937       949
       949       950       949       951       949       952       952       953
       952       954       952       955       955       956       955       957
       955       958       958       959       958       960       958       961
       961       962       961       963       961       964       964       965
       964       966       964       967       967       968       967       969
       969       970       969       971       971       972       971       973
       971       974       974       975       974       976       974       977
       977       978       977       979       977       980       980       981
       980       982       980       983       983       984       983       985
       983       986       986       987       986       988       986       989
       989       990       989       991       989       992       992       993
       992       994       992       995       943       944       944       946
       944       945       946       947       946       948       946       996
       996       997       996       998       996       999       999      1000
       999      1001       999      1002      1002      1003      1002      1004
      1002      1005      1005      1006      1005      1007      1005      1008
      1008      1009      1008      1010      1008      1011      1011      1012
      1011      1013      1011      1014      1014      1015      1014      1016
      1016      1017      1016      1018      1018      1019      1018      1020
      1018      1021      1021      1022      1021      1023      1021      1024
      1024      1025      1024      1026      1024      1027      1027      1028
      1027      1029      1027      1030      1030      1031      1030      1032
      1030      1033      1033      1034      1033      1035      1033      1036
      1036      1037      1036      1038      1036      1039      1039      1040
      1039      1041      1039      1042      1043      1044      1043      1045
      1043      1046      1043      1047      1047      1048      1047      1049
      1047      1050      1050      1051      1050      1052      1050      1057
      1057      1053      1053      1056      1053      1054      1053      1055
      1058      1059      1058      1060      1058      1061      1058      1056
      1061      1062      1061      1069      1061      1063      1069      1070
      1069      1071      1069      1072      1063      1064      1064      1066
      1064      1065      1066      1067      1066      1068      1066      1078
      1078      1079      1078      1080      1078      1081      1081      1082
      1081      1083      1081      1084      1084      1085      1084      1086
      1084      1087      1087      1088      1087      1089      1087      1090
      1090      1091      1090      1092      1090      1093      1093      1094
      1093      1095      1093      1096      1096      1097      1096      1098
      1098      1099      1098      1100      1100      1101      1100      1102
      1100      1103      1103      1104      1103      1105      1103      1106
      1106      1107      1106      1108      1106      1109      1109      1110
      1109      1111      1109      1112      1112      1113      1112      1114
      1112      1115      1115      1116      1115      1117      1115      1118
      1118      1119      1118      1120      1118      1121      1121      1122
      1121      1123      1121      1124      1072      1073      1073      1075
      1073      1074      1075      1076      1075      1077      1075      1125
      1125      1126      1125      1127      1125      1128      1128      1129
      1128      1130      1128      1131      1131      1132      1131      1133
      1131      1134      1134      1135      1134      1136      1134      1137
      1137      1138      1137      1139      1137      1140      1140      1141
      1140      1142      1140      1143      1143      1144      1143      1145
      1145      1146      1145      1147      1147      1148      1147      1149
      1147      1150      1150      1151      1150      1152      1150      1153
      1153      1154      1153      1155      1153      1156      1156      1157
      1156      1158      1156      1159      1159      1160      1159      1161
      1159      1162      1162      1163      1162      1164      1162      1165
      1165      1166      1165      1167      1165      1168      1168      1169
      1168      1170      1168      1171      1172      1174      1172      1173
      1174      1175      1172      1218      1218      1219      1218      1220
      1218      1215      1215      1216      1215      1217      1172      1176
      1176      1177      1176      1178      1176      1179      1179      1210
      1210      1215      1210      1211      1211      1212      1211      1213
      1211      1214      1179      1180      1180      1181      1180      1182
      1182      1183      1182      1184      1182      1185      1185      1186
      1185      1208      1208      1209      1208      1210      1185      1187
      1187      1188      1187      1197      1197      1202      1202      1203
      1202      1204      1202      1205      1205      1206      1205      1207
      1205      1208      1197      1198      1198      1199      1198      1200
      1198      1201      1187      1189      1189      1190      1189      1191
      1189      1192      1192      1193      1192      1194      1192      1195
      1195      1196      1195      1197      1195      1221      1221      1222
      1221      1223      1223      1224      1223      1225      1223      1226
      1221      1227      1227      1228      1227      1229      1227      1230
      1230      1231      1230      1232      1230      1233      1233      1234
      1233      1235      1233      1236      1236      1237      1236      1238
      1238      1239      1238      1240      1238      1241      1236      1242
      1242      1243      1242      1244      1242      1245      1321      1322
      1321      1323      1321      1324      1321      1318      1318      1319
      1318      1320      1318      1315      1315      1316      1315      1317
      1315      1312      1312      1313      1312      1314      1312      1309
      1309      1310      1309      1311      1309      1306      1306      1307
      1306      1308      1306      1303      1303      1304      1303      1305
      1303      1300      1300      1301      1300      1302      1300      1297
      1297      1298      1297      1299      1297      1294      1294      1295
      1294      1296      1294      1291      1291      1292      1291      1293
      1291      1288      1288      1289      1288      1290      1288      1285
      1285      1286      1285      1287      1285      1283      1283      1284
      1281      1282      1281      1277      1277      1278      1277      1279
      1279      1280      1277      1275      1275      1276      1275      1270
      1270      1271      1270      1272      1270      1268      1268      1265
      1269      1265      1266      1265      1267      1265      1269      1262
      1262      1263      1262      1264      1262      1259      1259      1260
      1259      1261      1259      1246      1246      1255      1246      1251
      1246      1247      1255      1256      1255      1257      1255      1258
      1251      1252      1251      1253      1251      1254      1247      1248
      1247      1249      1247      1250      1275      1273      1273      1274
      1273      1325      1325      1327      1327      1328      1327      1329
      1327      1330      1330      1331      1330      1332      1330      1333
      1333      1334      1333      1335      1333      1336      1336      1337
      1336      1338      1336      1339      1339      1340      1339      1341
      1339      1342      1342      1343      1342      1344      1342      1345
      1345      1346      1345      1347      1345      1348      1348      1349
      1348      1350      1348      1351      1351      1352      1351      1353
      1351      1354      1354      1355      1354      1356      1354      1357
      1357      1358      1357      1359      1357      1360      1360      1361
      1360      1362      1360      1363      1363      1364      1363      1365
      1363      1366      1366      1367      1366      1368      1366      1369
      1369      1370      1369      1371      1369      1372      1372      1373
      1372      1374      1372      1375      1375      1376      1375      1377
      1375      1378      1378      1379      1378      1380      1378      1381
      1381      1382      1381      1383      1381      1384      1384      1385
      1384      1386      1384      1387      1387      1388      1387      1389
      1387      1390      1390      1391      1390      1392      1390      1393
      1281      1283      1325      1326      1394      1398      1394      1402
      1394      1406      1398      1399      1398      1400      1398      1401
      1402      1403      1402      1404      1402      1405      1406      1407
      1406      1408      1406      1409      1394      1395      1395      1396
      1395      1397      1395      1410      1410      1411      1410      1412
      1410      1416      1417      1418      1416      1413      1413      1417
      1413      1414      1413      1415      1418      1419      1418      1420
      1418      1421      1421      1422      1421      1429      1421      1423
      1429      1430      1429      1431      1429      1432      1423      1424
      1424      1426      1424      1425      1426      1427      1426      1428
      1426      1438      1438      1439      1438      1440      1438      1441
      1441      1442      1441      1443      1441      1444      1444      1445
      1444      1446      1444      1447      1447      1448      1447      1449
      1447      1450      1450      1451      1450      1452      1450      1453
      1453      1454      1453      1455      1453      1456      1456      1457
      1456      1458      1458      1459      1458      1460      1460      1461
      1460      1462      1460      1463      1463      1464      1463      1465
      1463      1466      1466      1467      1466      1468      1466      1469
      1469      1470      1469      1471      1469      1472      1472      1473
      1472      1474      1472      1475      1475      1476      1475      1477
      1475      1478      1478      1479      1478      1480      1478      1481
      1481      1482      1481      1483      1481      1484      1432      1433
      1433      1435      1433      1434      1435      1436      1435      1437
      1435      1485      1485      1486      1485      1487      1485      1488
      1488      1489      1488      1490      1488      1491      1491      1492
      1491      1493      1491      1494      1494      1495      1494      1496
      1494      1497      1497      1498      1497      1499      1497      1500
      1500      1501      1500      1502      1500      1503      1503      1504
      1503      1505      1505      1506      1505      1507      1507      1508
      1507      1509      1507      1510      1510      1511      1510      1512
      1510      1513      1513      1514      1513      1515      1513      1516
      1516      1517      1516      1518      1516      1519      1519      1520
      1519      1521      1519      1522      1522      1523      1522      1524
      1522      1525      1525      1526      1525      1527      1525      1528
      1528      1529      1528      1530      1528      1531      1607      1608
      1607      1609      1607      1610      1607      1604      1604      1605
      1604      1606      1604      1601      1601      1602      1601      1603
      1601      1598      1598      1599      1598      1600      1598      1595
      1595      1596      1595      1597      1595      1592      1592      1593
      1592      1594      1592      1589      1589      1590      1589      1591
      1589      1586      1586      1587      1586      1588      1586      1583
      1583      1584      1583      1585      1583      1580      1580      1581
      1580      1582      1580      1577      1577      1578      1577      1579
      1577      1574      1574      1575      1574      1576      1574      1571
      1571      1572      1571      1573      1571      1569      1569      1570
      1567      1568      1567      1563      1563      1564      1563      1565
      1565      1566      1563      1561      1561      1562      1561      1556
      1556      1557      1556      1558      1556      1554      1554      1551
      1555      1551      1552      1551      1553      1551      1555      1548
      1548      1549      1548      1550      1548      1545      1545      1546
      1545      1547      1545      1532      1532      1541      1532      1537
      1532      1533      1541      1542      1541      1543      1541      1544
      1537      1538      1537      1539      1537      1540      1533      1534
      1533      1535      1533      1536      1561      1559      1559      1560
      1559      1611      1611      1613      1613      1614      1613      1615
      1613      1616      1616      1617      1616      1618      1616      1619
      1619      1620      1619      1621      1619      1622      1622      1623
      1622      1624      1622      1625      1625      1626      1625      1627
      1625      1628      1628      1629      1628      1630      1628      1631
      1631      1632      1631      1633      1631      1634      1634      1635
      1634      1636      1634      1637      1637      1638      1637      1639
      1637      1640      1640      1641      1640      1642      1640      1643
      1643      1644      1643      1645      1643      1646      1646      1647
      1646      1648      1646      1649      1649      1650      1649      1651
      1649      1652      1652      1653      1652      1654      1652      1655
      1655      1656      1655      1657      1655      1658      1658      1659
      1658      1660      1658      1661      1661      1662      1661      1663
      1661      1664      1664      1665      1664      1666      1664      1667
      1667      1668      1667      1669      1667      1670      1670      1671
      1670      1672      1670      1673      1673      1674      1673      1675
      1673      1676      1676      1677      1676      1678      1676      1679
      1567      1569      1611      1612      1680      1682      1680      1681
      1682      1683      1680      1726      1726      1727      1726      1728
      1726      1723      1723      1724      1723      1725      1680      1684
      1684      1685      1684      1686      1684      1687      1687      1718
      1718      1723      1718      1719      1719      1720      1719      1721
      1719      1722      1687      1688      1688      1689      1688      1690
      1690      1691      1690      1692      1690      1693      1693      1694
      1693      1716      1716      1717      1716      1718      1693      1695
      1695      1696      1695      1705      1705      1710      1710      1711
      1710      1712      1710      1713      1713      1714      1713      1715
      1713      1716      1705      1706      1706      1707      1706      1708
      1706      1709      1695      1697      1697      1698      1697      1699
      1697      1700      1700      1701      1700      1702      1700      1703
      1703      1704      1703      1705      1703      1729      1729      1730
      1729      1731      1731      1732      1731      1733      1731      1734
      1729      1735      1735      1736      1735      1737      1735      1738
      1738      1739      1738      1740      1738      1741      1741      1742
      1741      1743      1741      1744      1744      1745      1744      1746
      1746      1747      1746      1748      1746      1749      1744      1750
      1750      1751      1750      1752      1750      1753      1754      1755
      1754      1756      1754      1757      1754      1758      1758      1759
      1758      1760      1758      1761      1761      1762      1761      1763
      1761      1768      1768      1764      1764      1767      1764      1765
      1764      1766      1769      1770      1769      1771      1769      1772
      1769      1767      1772      1773      1772      1780      1772      1774
      1780      1781      1780      1782      1780      1783      1774      1775
      1775      1777      1775      1776      1777      1778      1777      1779
      1777      1789      1789      1790      1789      1791      1789      1792
      1792      1793      1792      1794      1792      1795      1795      1796
      1795      1797      1795      1798      1798      1799      1798      1800
      1798      1801      1801      1802      1801      1803      1801      1804
      1804      1805      1804      1806      1804      1807      1807      1808
      1807      1809      1809      1810      1809      1811      1811      1812
      1811      1813      1811      1814      1814      1815      1814      1816
      1814      1817      1817      1818      1817      1819      1817      1820
      1820      1821      1820      1822      1820      1823      1823      1824
      1823      1825      1823      1826      1826      1827      1826      1828
      1826      1829      1829      1830      1829      1831      1829      1832
      1832      1833      1832      1834      1832      1835      1783      1784
      1784      1786      1784      1785      1786      1787      1786      1788
      1786      1836      1836      1837      1836      1838      1836      1839
      1839      1840      1839      1841      1839      1842      1842      1843
      1842      1844      1842      1845      1845      1846      1845      1847
      1845      1848      1848      1849      1848      1850      1848      1851
      1851      1852      1851      1853      1851      1854      1854      1855
      1854      1856      1856      1857      1856      1858      1858      1859
      1858      1860      1858      1861      1861      1862      1861      1863
      1861      1864      1864      1865      1864      1866      1864      1867
      1867      1868      1867      1869      1867      1870      1870      1871
      1870      1872      1870      1873      1873      1874      1873      1875
      1873      1876      1876      1877      1876      1878      1876      1879
      1879      1880      1879      1881      1879      1882      1883      1887
      1883      1891      1883      1895      1887      1888      1887      1889
      1887      1890      1891      1892      1891      1893      1891      1894
      1895      1896      1895      1897      1895      1898      1883      1884
      1884      1885      1884      1886      1884      1899      1899      1900
      1899      1901      1899      1905      1906      1907      1905      1902
      1902      1906      1902      1903      1902      1904      1907      1908
      1907      1909      1907      1910      1910      1911      1910      1918
      1910      1912      1918      1919      1918      1920      1918      1921
      1912      1913      1913      1915      1913      1914      1915      1916
      1915      1917      1915      1927      1927      1928      1927      1929
      1927      1930      1930      1931      1930      1932      1930      1933
      1933      1934      1933      1935      1933      1936      1936      1937
      1936      1938      1936      1939      1939      1940      1939      1941
      1939      1942      1942      1943      1942      1944      1942      1945
      1945      1946      1945      1947      1947      1948      1947      1949
      1949      1950      1949      1951      1949      1952      1952      1953
      1952      1954      1952      1955      1955      1956      1955      1957
      1955      1958      1958      1959      1958      1960      1958      1961
      1961      1962      1961      1963      1961      1964      1964      1965
      1964      1966      1964      1967      1967      1968      1967      1969
      1967      1970      1970      1971      1970      1972      1970      1973
      1921      1922      1922      1924      1922      1923      1924      1925
      1924      1926      1924      1974      1974      1975      1974      1976
      1974      1977      1977      1978      1977      1979      1977      1980
      1980      1981      1980      1982      1980      1983      1983      1984
      1983      1985      1983      1986      1986      1987      1986      1988
      1986      1989      1989      1990      1989      1991      1989      1992
      1992      1993      1992      1994      1994      1995      1994      1996
      1996      1997      1996      1998      1996      1999      1999      2000
      1999      2001      1999      2002      2002      2003      2002      2004
      2002      2005      2005      2006      2005      2007      2005      2008
      2008      2009      2008      2010      2008      2011      2011      2012
      2011      2013      2011      2014      2014      2015      2014      2016
      2014      2017      2017      2018      2017      2019      2017      2020
      2096      2097      2096      2098      2096      2099      2096      2093
      2093      2094      2093      2095      2093      2090      2090      2091
      2090      2092      2090      2087      2087      2088      2087      2089
      2087      2084      2084      2085      2084      2086      2084      2081
      2081      2082      2081      2083      2081      2078      2078      2079
      2078      2080      2078      2075      2075      2076      2075      2077
      2075      2072      2072      2073      2072      2074      2072      2069
      2069      2070      2069      2071      2069      2066      2066      2067
      2066      2068      2066      2063      2063      2064      2063      2065
      2063      2060      2060      2061      2060      2062      2060      2058
      2058      2059      2056      2057      2056      2052      2052      2053
      2052      2054      2054      2055      2052      2050      2050      2051
      2050      2045      2045      2046      2045      2047      2045      2043
      2043      2040      2044      2040      2041      2040      2042      2040
      2044      2037      2037      2038      2037      2039      2037      2034
      2034      2035      2034      2036      2034      2021      2021      2030
      2021      2026      2021      2022      2030      2031      2030      2032
      2030      2033      2026      2027      2026      2028      2026      2029
      2022      2023      2022      2024      2022      2025      2050      2048
      2048      2049      2048      2100      2100      2102      2102      2103
      2102      2104      2102      2105      2105      2106      2105      2107
      2105      2108      2108      2109      2108      2110      2108      2111
      2111      2112      2111      2113      2111      2114      2114      2115
      2114      2116      2114      2117      2117      2118      2117      2119
      2117      2120      2120      2121      2120      2122      2120      2123
      2123      2124      2123      2125      2123      2126      2126      2127
      2126      2128      2126      2129      2129      2130      2129      2131
      2129      2132      2132      2133      2132      2134      2132      2135
      2135      2136      2135      2137      2135      2138      2138      2139
      2138      2140      2138      2141      2141      2142      2141      2143
      2141      2144      2144      2145      2144      2146      2144      2147
      2147      2148      2147      2149      2147      2150      2150      2151
      2150      2152      2150      2153      2153      2154      2153      2155
      2153      2156      2156      2157      2156      2158      2156      2159
      2159      2160      2159      2161      2159      2162      2162      2163
      2162      2164      2162      2165      2165      2166      2165      2167
      2165      2168      2056      2058      2100      2101      2169      2173
      2169      2177      2169      2181      2173      2174      2173      2175
      2173      2176      2177      2178      2177      2179      2177      2180
      2181      2182      2181      2183      2181      2184      2169      2170
      2170      2171      2170      2172      2170      2185      2185      2186
      2185      2187      2185      2191      2192      2193      2191      2188
      2188      2192      2188      2189      2188      2190      2193      2194
      2193      2195      2193      2196      2196      2197      2196      2204
      2196      2198      2204      2205      2204      2206      2204      2207
      2198      2199      2199      2201      2199      2200      2201      2202
      2201      2203      2201      2213      2213      2214      2213      2215
      2213      2216      2216      2217      2216      2218      2216      2219
      2219      2220      2219      2221      2219      2222      2222      2223
      2222      2224      2222      2225      2225      2226      2225      2227
      2225      2228      2228      2229      2228      2230      2228      2231
      2231      2232      2231      2233      2233      2234      2233      2235
      2235      2236      2235      2237      2235      2238      2238      2239
      2238      2240      2238      2241      2241      2242      2241      2243
      2241      2244      2244      2245      2244      2246      2244      2247
      2247      2248      2247      2249      2247      2250      2250      2251
      2250      2252      2250      2253      2253      2254      2253      2255
      2253      2256      2256      2257      2256      2258      2256      2259
      2207      2208      2208      2210      2208      2209      2210      2211
      2210      2212      2210      2260      2260      2261      2260      2262
      2260      2263      2263      2264      2263      2265      2263      2266
      2266      2267      2266      2268      2266      2269      2269      2270
      2269      2271      2269      2272      2272      2273      2272      2274
      2272      2275      2275      2276      2275      2277      2275      2278
      2278      2279      2278      2280      2280      2281      2280      2282
      2282      2283      2282      2284      2282      2285      2285      2286
      2285      2287      2285      2288      2288      2289      2288      2290
      2288      2291      2291      2292      2291      2293      2291      2294
      2294      2295      2294      2296      2294      2297      2297      2298
      2297      2299      2297      2300      2300      2301      2300      2302
      2300      2303      2303      2304      2303      2305      2303      2306
      2382      2383      2382      2384      2382      2385      2382      2379
      2379      2380      2379      2381      2379      2376      2376      2377
      2376      2378      2376      2373      2373      2374      2373      2375
      2373      2370      2370      2371      2370      2372      2370      2367
      2367      2368      2367      2369      2367      2364      2364      2365
      2364      2366      2364      2361      2361      2362      2361      2363
      2361      2358      2358      2359      2358      2360      2358      2355
      2355      2356      2355      2357      2355      2352      2352      2353
      2352      2354      2352      2349      2349      2350      2349      2351
      2349      2346      2346      2347      2346      2348      2346      2344
      2344      2345      2342      2343      2342      2338      2338      2339
      2338      2340      2340      2341      2338      2336      2336      2337
      2336      2331      2331      2332      2331      2333      2331      2329
      2329      2326      2330      2326      2327      2326      2328      2326
      2330      2323      2323      2324      2323      2325      2323      2320
      2320      2321      2320      2322      2320      2307      2307      2316
      2307      2312      2307      2308      2316      2317      2316      2318
      2316      2319      2312      2313      2312      2314      2312      2315
      2308      2309      2308      2310      2308      2311      2336      2334
      2334      2335      2334      2386      2386      2388      2388      2389
      2388      2390      2388      2391      2391      2392      2391      2393
      2391      2394      2394      2395      2394      2396      2394      2397
      2397      2398      2397      2399      2397      2400      2400      2401
      2400      2402      2400      2403      2403      2404      2403      2405
      2403      2406      2406      2407      2406      2408      2406      2409
      2409      2410      2409      2411      2409      2412      2412      2413
      2412      2414      2412      2415      2415      2416      2415      2417
      2415      2418      2418      2419      2418      2420      2418      2421
      2421      2422      2421      2423      2421      2424      2424      2425
      2424      2426      2424      2427      2427      2428      2427      2429
      2427      2430      2430      2431      2430      2432      2430      2433
      2433      2434      2433      2435      2433      2436      2436      2437
      2436      2438      2436      2439      2439      2440      2439      2441
      2439      2442      2442      2443      2442      2444      2442      2445
      2445      2446      2445      2447      2445      2448      2448      2449
      2448      2450      2448      2451      2451      2452      2451      2453
      2451      2454      2342      2344      2386      2387      2455      2456
      2455      2457      2455      2458      2455      2459      2459      2460
      2459      2461      2459      2462      2462      2463      2462      2464
      2462      2469      2469      2465      2465      2468      2465      2466
      2465      2467      2470      2471      2470      2472      2470      2473
      2470      2468      2473      2474      2473      2481      2473      2475
      2481      2482      2481      2483      2481      2484      2475      2476
      2476      2478      2476      2477      2478      2479      2478      2480
      2478      2490      2490      2491      2490      2492      2490      2493
      2493      2494      2493      2495      2493      2496      2496      2497
      2496      2498      2496      2499      2499      2500      2499      2501
      2499      2502      2502      2503      2502      2504      2502      2505
      2505      2506      2505      2507      2505      2508      2508      2509
      2508      2510      2510      2511      2510      2512      2512      2513
      2512      2514      2512      2515      2515      2516      2515      2517
      2515      2518      2518      2519      2518      2520      2518      2521
      2521      2522      2521      2523      2521      2524      2524      2525
      2524      2526      2524      2527      2527      2528      2527      2529
      2527      2530      2530      2531      2530      2532      2530      2533
      2533      2534      2533      2535      2533      2536      2484      2485
      2485      2487      2485      2486      2487      2488      2487      2489
      2487      2537      2537      2538      2537      2539      2537      2540
      2540      2541      2540      2542      2540      2543      2543      2544
      2543      2545      2543      2546      2546      2547      2546      2548
      2546      2549      2549      2550      2549      2551      2549      2552
      2552      2553      2552      2554      2552      2555      2555      2556
      2555      2557      2557      2558      2557      2559      2559      2560
      2559      2561      2559      2562      2562      2563      2562      2564
      2562      2565      2565      2566      2565      2567      2565      2568
      2568      2569      2568      2570      2568      2571      2571      2572
      2571      2573      2571      2574      2574      2575      2574      2576
      2574      2577      2577      2578      2577      2579      2577      2580
      2580      2581      2580      2582      2580      2583      2584      2588
      2584      2592      2584      2596      2588      2589      2588      2590
      2588      2591      2592      2593      2592      2594      2592      2595
      2596      2597      2596      2598      2596      2599      2584      2585
      2585      2586      2585      2587      2585      2600      2600      2601
      2600      2602      2600      2606      2607      2608      2606      2603
      2603      2607      2603      2604      2603      2605      2608      2609
      2608      2610      2608      2611      2611      2612      2611      2619
      2611      2613      2619      2620      2619      2621      2619      2622
      2613      2614      2614      2616      2614      2615      2616      2617
      2616      2618      2616      2628      2628      2629      2628      2630
      2628      2631      2631      2632      2631      2633      2631      2634
      2634      2635      2634      2636      2634      2637      2637      2638
      2637      2639      2637      2640      2640      2641      2640      2642
      2640      2643      2643      2644      2643      2645      2643      2646
      2646      2647      2646      2648      2648      2649      2648      2650
      2650      2651      2650      2652      2650      2653      2653      2654
      2653      2655      2653      2656      2656      2657      2656      2658
      2656      2659      2659      2660      2659      2661      2659      2662
      2662      2663      2662      2664      2662      2665      2665      2666
      2665      2667      2665      2668      2668      2669      2668      2670
      2668      2671      2671      2672      2671      2673      2671      2674
      2622      2623      2623      2625      2623      2624      2625      2626
      2625      2627      2625      2675      2675      2676      2675      2677
      2675      2678      2678      2679      2678      2680      2678      2681
      2681      2682      2681      2683      2681      2684      2684      2685
      2684      2686      2684      2687      2687      2688      2687      2689
      2687      2690      2690      2691      2690      2692      2690      2693
      2693      2694      2693      2695      2695      2696      2695      2697
      2697      2698      2697      2699      2697      2700      2700      2701
      2700      2702      2700      2703      2703      2704      2703      2705
      2703      2706      2706      2707      2706      2708      2706      2709
      2709      2710      2709      2711      2709      2712      2712      2713
      2712      2714      2712      2715      2715      2716      2715      2717
      2715      2718      2718      2719      2718      2720      2718      2721
      2722      2726      2722      2730      2722      2734      2726      2727
      2726      2728      2726      2729      2730      2731      2730      2732
      2730      2733      2734      2735      2734      2736      2734      2737
      2722      2723      2723      2724      2723      2725      2723      2738
      2738      2739      2738      2740      2738      2744      2745      2746
      2744      2741      2741      2745      2741      2742      2741      2743
      2746      2747      2746      2748      2746      2749      2749      2750
      2749      2757      2749      2751      2757      2758      2757      2759
      2757      2760      2751      2752      2752      2754      2752      2753
      2754      2755      2754      2756      2754      2766      2766      2767
      2766      2768      2766      2769      2769      2770      2769      2771
      2769      2772      2772      2773      2772      2774      2772      2775
      2775      2776      2775      2777      2775      2778      2778      2779
      2778      2780      2778      2781      2781      2782      2781      2783
      2781      2784      2784      2785      2784      2786      2786      2787
      2786      2788      2788      2789      2788      2790      2788      2791
      2791      2792      2791      2793      2791      2794      2794      2795
      2794      2796      2794      2797      2797      2798      2797      2799
      2797      2800      2800      2801      2800      2802      2800      2803
      2803      2804      2803      2805      2803      2806      2806      2807
      2806      2808      2806      2809      2809      2810      2809      2811
      2809      2812      2760      2761      2761      2763      2761      2762
      2763      2764      2763      2765      2763      2813      2813      2814
      2813      2815      2813      2816      2816      2817      2816      2818
      2816      2819      2819      2820      2819      2821      2819      2822
      2822      2823      2822      2824      2822      2825      2825      2826
      2825      2827      2825      2828      2828      2829      2828      2830
      2828      2831      2831      2832      2831      2833      2833      2834
      2833      2835      2835      2836      2835      2837      2835      2838
      2838      2839      2838      2840      2838      2841      2841      2842
      2841      2843      2841      2844      2844      2845      2844      2846
      2844      2847      2847      2848      2847      2849      2847      2850
      2850      2851      2850      2852      2850      2853      2853      2854
      2853      2855      2853      2856      2856      2857      2856      2858
      2856      2859      2935      2936      2935      2937      2935      2938
      2935      2932      2932      2933      2932      2934      2932      2929
      2929      2930      2929      2931      2929      2926      2926      2927
      2926      2928      2926      2923      2923      2924      2923      2925
      2923      2920      2920      2921      2920      2922      2920      2917
      2917      2918      2917      2919      2917      2914      2914      2915
      2914      2916      2914      2911      2911      2912      2911      2913
      2911      2908      2908      2909      2908      2910      2908      2905
      2905      2906      2905      2907      2905      2902      2902      2903
      2902      2904      2902      2899      2899      2900      2899      2901
      2899      2897      2897      2898      2895      2896      2895      2891
      2891      2892      2891      2893      2893      2894      2891      2889
      2889      2890      2889      2884      2884      2885      2884      2886
      2884      2882      2882      2879      2883      2879      2880      2879
      2881      2879      2883      2876      2876      2877      2876      2878
      2876      2873      2873      2874      2873      2875      2873      2860
      2860      2869      2860      2865      2860      2861      2869      2870
      2869      2871      2869      2872      2865      2866      2865      2867
      2865      2868      2861      2862      2861      2863      2861      2864
      2889      2887      2887      2888      2887      2939      2939      2941
      2941      2942      2941      2943      2941      2944      2944      2945
      2944      2946      2944      2947      2947      2948      2947      2949
      2947      2950      2950      2951      2950      2952      2950      2953
      2953      2954      2953      2955      2953      2956      2956      2957
      2956      2958      2956      2959      2959      2960      2959      2961
      2959      2962      2962      2963      2962      2964      2962      2965
      2965      2966      2965      2967      2965      2968      2968      2969
      2968      2970      2968      2971      2971      2972      2971      2973
      2971      2974      2974      2975      2974      2976      2974      2977
      2977      2978      2977      2979      2977      2980      2980      2981
      2980      2982      2980      2983      2983      2984      2983      2985
      2983      2986      2986      2987      2986      2988      2986      2989
      2989      2990      2989      2991      2989      2992      2992      2993
      2992      2994      2992      2995      2995      2996      2995      2997
      2995      2998      2998      2999      2998      3000      2998      3001
      3001      3002      3001      3003      3001      3004      3004      3005
      3004      3006      3004      3007      2895      2897      2939      2940
      3008      3012      3008      3016      3008      3020      3012      3013
      3012      3014      3012      3015      3016      3017      3016      3018
      3016      3019      3020      3021      3020      3022      3020      3023
      3008      3009      3009      3010      3009      3011      3009      3024
      3024      3025      3024      3026      3024      3030      3031      3032
      3030      3027      3027      3031      3027      3028      3027      3029
      3032      3033      3032      3034      3032      3035      3035      3036
      3035      3043      3035      3037      3043      3044      3043      3045
      3043      3046      3037      3038      3038      3040      3038      3039
      3040      3041      3040      3042      3040      3052      3052      3053
      3052      3054      3052      3055      3055      3056      3055      3057
      3055      3058      3058      3059      3058      3060      3058      3061
      3061      3062      3061      3063      3061      3064      3064      3065
      3064      3066      3064      3067      3067      3068      3067      3069
      3067      3070      3070      3071      3070      3072      3072      3073
      3072      3074      3074      3075      3074      3076      3074      3077
      3077      3078      3077      3079      3077      3080      3080      3081
      3080      3082      3080      3083      3083      3084      3083      3085
      3083      3086      3086      3087      3086      3088      3086      3089
      3089      3090      3089      3091      3089      3092      3092      3093
      3092      3094      3092      3095      3095      3096      3095      3097
      3095      3098      3046      3047      3047      3049      3047      3048
      3049      3050      3049      3051      3049      3099      3099      3100
      3099      3101      3099      3102      3102      3103      3102      3104
      3102      3105      3105      3106      3105      3107      3105      3108
      3108      3109      3108      3110      3108      3111      3111      3112
      3111      3113      3111      3114      3114      3115      3114      3116
      3114      3117      3117      3118      3117      3119      3119      3120
      3119      3121      3121      3122      3121      3123      3121      3124
      3124      3125      3124      3126      3124      3127      3127      3128
      3127      3129      3127      3130      3130      3131      3130      3132
      3130      3133      3133      3134      3133      3135      3133      3136
      3136      3137      3136      3138      3136      3139      3139      3140
      3139      3141      3139      3142      3142      3143      3142      3144
      3142      3145      3146      3147      3146      3148      3146      3149
      3146      3150      3150      3151      3150      3152      3150      3153
      3153      3154      3153      3155      3153      3160      3160      3156
      3156      3159      3156      3157      3156      3158      3161      3162
      3161      3163      3161      3164      3161      3159      3164      3165
      3164      3172      3164      3166      3172      3173      3172      3174
      3172      3175      3166      3167      3167      3169      3167      3168
      3169      3170      3169      3171      3169      3181      3181      3182
      3181      3183      3181      3184      3184      3185      3184      3186
      3184      3187      3187      3188      3187      3189      3187      3190
      3190      3191      3190      3192      3190      3193      3193      3194
      3193      3195      3193      3196      3196      3197      3196      3198
      3196      3199      3199      3200      3199      3201      3201      3202
      3201      3203      3203      3204      3203      3205      3203      3206
      3206      3207      3206      3208      3206      3209      3209      3210
      3209      3211      3209      3212      3212      3213      3212      3214
      3212      3215      3215      3216      3215      3217      3215      3218
      3218      3219      3218      3220      3218      3221      3221      3222
      3221      3223      3221      3224      3224      3225      3224      3226
      3224      3227      3175      3176      3176      3178      3176      3177
      3178      3179      3178      3180      3178      3228      3228      3229
      3228      3230      3228      3231      3231      3232      3231      3233
      3231      3234      3234      3235      3234      3236      3234      3237
      3237      3238      3237      3239      3237      3240      3240      3241
      3240      3242      3240      3243      3243      3244      3243      3245
      3243      3246      3246      3247      3246      3248      3248      3249
      3248      3250      3250      3251      3250      3252      3250      3253
      3253      3254      3253      3255      3253      3256      3256      3257
      3256      3258      3256      3259      3259      3260      3259      3261
      3259      3262      3262      3263      3262      3264      3262      3265
      3265      3266      3265      3267      3265      3268      3268      3269
      3268      3270      3268      3271      3271      3272      3271      3273
      3271      3274      3275      3276      3275      3277      3275      3278
      3275      3279      3279      3280      3279      3281      3279      3282
      3282      3283      3282      3284      3282      3289      3289      3285
      3285      3288      3285      3286      3285      3287      3290      3291
      3290      3292      3290      3293      3290      3288      3293      3294
      3293      3301      3293      3295      3301      3302      3301      3303
      3301      3304      3295      3296      3296      3298      3296      3297
      3298      3299      3298      3300      3298      3310      3310      3311
      3310      3312      3310      3313      3313      3314      3313      3315
      3313      3316      3316      3317      3316      3318      3316      3319
      3319      3320      3319      3321      3319      3322      3322      3323
      3322      3324      3322      3325      3325      3326      3325      3327
      3325      3328      3328      3329      3328      3330      3330      3331
      3330      3332      3332      3333      3332      3334      3332      3335
      3335      3336      3335      3337      3335      3338      3338      3339
      3338      3340      3338      3341      3341      3342      3341      3343
      3341      3344      3344      3345      3344      3346      3344      3347
      3347      3348      3347      3349      3347      3350      3350      3351
      3350      3352      3350      3353      3353      3354      3353      3355
      3353      3356      3304      3305      3305      3307      3305      3306
      3307      3308      3307      3309      3307      3357      3357      3358
      3357      3359      3357      3360      3360      3361      3360      3362
      3360      3363      3363      3364      3363      3365      3363      3366
      3366      3367      3366      3368      3366      3369      3369      3370
      3369      3371      3369      3372      3372      3373      3372      3374
      3372      3375      3375      3376      3375      3377      3377      3378
      3377      3379      3379      3380      3379      3381      3379      3382
      3382      3383      3382      3384      3382      3385      3385      3386
      3385      3387      3385      3388      3388      3389      3388      3390
      3388      3391      3391      3392      3391      3393      3391      3394
      3394      3395      3394      3396      3394      3397      3397      3398
      3397      3399      3397      3400      3400      3401      3400      3402
      3400      3403      3404      3405      3404      3406      3404      3407
      3404      3408      3408      3409      3408      3410      3408      3411
      3411      3412      3411      3413      3411      3418      3418      3414
      3414      3417      3414      3415      3414      3416      3419      3420
      3419      3421      3419      3422      3419      3417      3422      3423
      3422      3430      3422      3424      3430      3431      3430      3432
      3430      3433      3424      3425      3425      3427      3425      3426
      3427      3428      3427      3429      3427      3439      3439      3440
      3439      3441      3439      3442      3442      3443      3442      3444
      3442      3445      3445      3446      3445      3447      3445      3448
      3448      3449      3448      3450      3448      3451      3451      3452
      3451      3453      3451      3454      3454      3455      3454      3456
      3454      3457      3457      3458      3457      3459      3459      3460
      3459      3461      3461      3462      3461      3463      3461      3464
      3464      3465      3464      3466      3464      3467      3467      3468
      3467      3469      3467      3470      3470      3471      3470      3472
      3470      3473      3473      3474      3473      3475      3473      3476
      3476      3477      3476      3478      3476      3479      3479      3480
      3479      3481      3479      3482      3482      3483      3482      3484
      3482      3485      3433      3434      3434      3436      3434      3435
      3436      3437      3436      3438      3436      3486      3486      3487
      3486      3488      3486      3489      3489      3490      3489      3491
      3489      3492      3492      3493      3492      3494      3492      3495
      3495      3496      3495      3497      3495      3498      3498      3499
      3498      3500      3498      3501      3501      3502      3501      3503
      3501      3504      3504      3505      3504      3506      3506      3507
      3506      3508      3508      3509      3508      3510      3508      3511
      3511      3512      3511      3513      3511      3514      3514      3515
      3514      3516      3514      3517      3517      3518      3517      3519
      3517      3520      3520      3521      3520      3522      3520      3523
      3523      3524      3523      3525      3523      3526      3526      3527
      3526      3528      3526      3529      3529      3530      3529      3531
      3529      3532      3533      3535      3533      3534      3535      3536
      3533      3579      3579      3580      3579      3581      3579      3576
      3576      3577      3576      3578      3533      3537      3537      3538
      3537      3539      3537      3540      3540      3571      3571      3576
      3571      3572      3572      3573      3572      3574      3572      3575
      3540      3541      3541      3542      3541      3543      3543      3544
      3543      3545      3543      3546      3546      3547      3546      3569
      3569      3570      3569      3571      3546      3548      3548      3549
      3548      3558      3558      3563      3563      3564      3563      3565
      3563      3566      3566      3567      3566      3568      3566      3569
      3558      3559      3559      3560      3559      3561      3559      3562
      3548      3550      3550      3551      3550      3552      3550      3553
      3553      3554      3553      3555      3553      3556      3556      3557
      3556      3558      3556      3582      3582      3583      3582      3584
      3584      3585      3584      3586      3584      3587      3582      3588
      3588      3589      3588      3590      3588      3591      3591      3592
      3591      3593      3591      3594      3594      3595      3594      3596
      3594      3597      3597      3598      3597      3599      3599      3600
      3599      3601      3599      3602      3597      3603      3603      3604
      3603      3605      3603      3606      3607      3609      3607      3608
      3609      3610      3607      3653      3653      3654      3653      3655
      3653      3650      3650      3651      3650      3652      3607      3611
      3611      3612      3611      3613      3611      3614      3614      3645
      3645      3650      3645      3646      3646      3647      3646      3648
      3646      3649      3614      3615      3615      3616      3615      3617
      3617      3618      3617      3619      3617      3620      3620      3621
      3620      3643      3643      3644      3643      3645      3620      3622
      3622      3623      3622      3632      3632      3637      3637      3638
      3637      3639      3637      3640      3640      3641      3640      3642
      3640      3643      3632      3633      3633      3634      3633      3635
      3633      3636      3622      3624      3624      3625      3624      3626
      3624      3627      3627      3628      3627      3629      3627      3630
      3630      3631      3630      3632      3630      3656      3656      3657
      3656      3658      3658      3659      3658      3660      3658      3661
      3656      3662      3662      3663      3662      3664      3662      3665
      3665      3666      3665      3667      3665      3668      3668      3669
      3668      3670      3668      3671      3671      3672      3671      3673
      3673      3674      3673      3675      3673      3676      3671      3677
      3677      3678      3677      3679      3677      3680      3756      3757
      3756      3758      3756      3759      3756      3753      3753      3754
      3753      3755      3753      3750      3750      3751      3750      3752
      3750      3747      3747      3748      3747      3749      3747      3744
      3744      3745      3744      3746      3744      3741      3741      3742
      3741      3743      3741      3738      3738      3739      3738      3740
      3738      3735      3735      3736      3735      3737      3735      3732
      3732      3733      3732      3734      3732      3729      3729      3730
      3729      3731      3729      3726      3726      3727      3726      3728
      3726      3723      3723      3724      3723      3725      3723      3720
      3720      3721      3720      3722      3720      3718      3718      3719
      3716      3717      3716      3712      3712      3713      3712      3714
      3714      3715      3712      3710      3710      3711      3710      3705
      3705      3706      3705      3707      3705      3703      3703      3700
      3704      3700      3701      3700      3702      3700      3704      3697
      3697      3698      3697      3699      3697      3694      3694      3695
      3694      3696      3694      3681      3681      3690      3681      3686
      3681      3682      3690      3691      3690      3692      3690      3693
      3686      3687      3686      3688      3686      3689      3682      3683
      3682      3684      3682      3685      3710      3708      3708      3709
      3708      3760      3760      3762      3762      3763      3762      3764
      3762      3765      3765      3766      3765      3767      3765      3768
      3768      3769      3768      3770      3768      3771      3771      3772
      3771      3773      3771      3774      3774      3775      3774      3776
      3774      3777      3777      3778      3777      3779      3777      3780
      3780      3781      3780      3782      3780      3783      3783      3784
      3783      3785      3783      3786      3786      3787      3786      3788
      3786      3789      3789      3790      3789      3791      3789      3792
      3792      3793      3792      3794      3792      3795      3795      3796
      3795      3797      3795      3798      3798      3799      3798      3800
      3798      3801      3801      3802      3801      3803      3801      3804
      3804      3805      3804      3806      3804      3807      3807      3808
      3807      3809      3807      3810      3810      3811      3810      3812
      3810      3813      3813      3814      3813      3815      3813      3816
      3816      3817      3816      3818      3816      3819      3819      3820
      3819      3821      3819      3822      3822      3823      3822      3824
      3822      3825      3825      3826      3825      3827      3825      3828
      3716      3718      3760      3761      3904      3905      3904      3906
      3904      3907      3904      3901      3901      3902      3901      3903
      3901      3898      3898      3899      3898      3900      3898      3895
      3895      3896      3895      3897      3895      3892      3892      3893
      3892      3894      3892      3889      3889      3890      3889      3891
      3889      3886      3886      3887      3886      3888      3886      3883
      3883      3884      3883      3885      3883      3880      3880      3881
      3880      3882      3880      3877      3877      3878      3877      3879
      3877      3874      3874      3875      3874      3876      3874      3871
      3871      3872      3871      3873      3871      3868      3868      3869
      3868      3870      3868      3866      3866      3867      3864      3865
      3864      3860      3860      3861      3860      3862      3862      3863
      3860      3858      3858      3859      3858      3853      3853      3854
      3853      3855      3853      3851      3851      3848      3852      3848
      3849      3848      3850      3848      3852      3845      3845      3846
      3845      3847      3845      3842      3842      3843      3842      3844
      3842      3829      3829      3838      3829      3834      3829      3830
      3838      3839      3838      3840      3838      3841      3834      3835
      3834      3836      3834      3837      3830      3831      3830      3832
      3830      3833      3858      3856      3856      3857      3856      3908
      3908      3910      3910      3911      3910      3912      3910      3913
      3913      3914      3913      3915      3913      3916      3916      3917
      3916      3918      3916      3919      3919      3920      3919      3921
      3919      3922      3922      3923      3922      3924      3922      3925
      3925      3926      3925      3927      3925      3928      3928      3929
      3928      3930      3928      3931      3931      3932      3931      3933
      3931      3934      3934      3935      3934      3936      3934      3937
      3937      3938      3937      3939      3937      3940      3940      3941
      3940      3942      3940      3943      3943      3944      3943      3945
      3943      3946      3946      3947      3946      3948      3946      3949
      3949      3950      3949      3951      3949      3952      3952      3953
      3952      3954      3952      3955      3955      3956      3955      3957
      3955      3958      3958      3959      3958      3960      3958      3961
      3961      3962      3961      3963      3961      3964      3964      3965
      3964      3966      3964      3967      3967      3968      3967      3969
      3967      3970      3970      3971      3970      3972      3970      3973
      3973      3974      3973      3975      3973      3976      3864      3866
      3908      3909      3977      3979      3977      3978      3979      3980
      3977      4023      4023      4024      4023      4025      4023      4020
      4020      4021      4020      4022      3977      3981      3981      3982
      3981      3983      3981      3984      3984      4015      4015      4020
      4015      4016      4016      4017      4016      4018      4016      4019
      3984      3985      3985      3986      3985      3987      3987      3988
      3987      3989      3987      3990      3990      3991      3990      4013
      4013      4014      4013      4015      3990      3992      3992      3993
      3992      4002      4002      4007      4007      4008      4007      4009
      4007      4010      4010      4011      4010      4012      4010      4013
      4002      4003      4003      4004      4003      4005      4003      4006
      3992      3994      3994      3995      3994      3996      3994      3997
      3997      3998      3997      3999      3997      4000      4000      4001
      4000      4002      4000      4026      4026      4027      4026      4028
      4028      4029      4028      4030      4028      4031      4026      4032
      4032      4033      4032      4034      4032      4035      4035      4036
      4035      4037      4035      4038      4038      4039      4038      4040
      4038      4041      4041      4042      4041      4043      4043      4044
      4043      4045      4043      4046      4041      4047      4047      4048
      4047      4049      4047      4050      4126      4127      4126      4128
      4126      4129      4126      4123      4123      4124      4123      4125
      4123      4120      4120      4121      4120      4122      4120      4117
      4117      4118      4117      4119      4117      4114      4114      4115
      4114      4116      4114      4111      4111      4112      4111      4113
      4111      4108      4108      4109      4108      4110      4108      4105
      4105      4106      4105      4107      4105      4102      4102      4103
      4102      4104      4102      4099      4099      4100      4099      4101
      4099      4096      4096      4097      4096      4098      4096      4093
      4093      4094      4093      4095      4093      4090      4090      4091
      4090      4092      4090      4088      4088      4089      4086      4087
      4086      4082      4082      4083      4082      4084      4084      4085
      4082      4080      4080      4081      4080      4075      4075      4076
      4075      4077      4075      4073      4073      4070      4074      4070
      4071      4070      4072      4070      4074      4067      4067      4068
      4067      4069      4067      4064      4064      4065      4064      4066
      4064      4051      4051      4060      4051      4056      4051      4052
      4060      4061      4060      4062      4060      4063      4056      4057
      4056      4058      4056      4059      4052      4053      4052      4054
      4052      4055      4080      4078      4078      4079      4078      4130
      4130      4132      4132      4133      4132      4134      4132      4135
      4135      4136      4135      4137      4135      4138      4138      4139
      4138      4140      4138      4141      4141      4142      4141      4143
      4141      4144      4144      4145      4144      4146      4144      4147
      4147      4148      4147      4149      4147      4150      4150      4151
      4150      4152      4150      4153      4153      4154      4153      4155
      4153      4156      4156      4157      4156      4158      4156      4159
      4159      4160      4159      4161      4159      4162      4162      4163
      4162      4164      4162      4165      4165      4166      4165      4167
      4165      4168      4168      4169      4168      4170      4168      4171
      4171      4172      4171      4173      4171      4174      4174      4175
      4174      4176      4174      4177      4177      4178      4177      4179
      4177      4180      4180      4181      4180      4182      4180      4183
      4183      4184      4183      4185      4183      4186      4186      4187
      4186      4188      4186      4189      4189      4190      4189      4191
      4189      4192      4192      4193      4192      4194      4192      4195
      4195      4196      4195      4197      4195      4198      4086      4088
      4130      4131      4199      4201      4199      4200      4201      4202
      4199      4245      4245      4246      4245      4247      4245      4242
      4242      4243      4242      4244      4199      4203      4203      4204
      4203      4205      4203      4206      4206      4237      4237      4242
      4237      4238      4238      4239      4238      4240      4238      4241
      4206      4207      4207      4208      4207      4209      4209      4210
      4209      4211      4209      4212      4212      4213      4212      4235
      4235      4236      4235      4237      4212      4214      4214      4215
      4214      4224      4224      4229      4229      4230      4229      4231
      4229      4232      4232      4233      4232      4234      4232      4235
      4224      4225      4225      4226      4225      4227      4225      4228
      4214      4216      4216      4217      4216      4218      4216      4219
      4219      4220      4219      4221      4219      4222      4222      4223
      4222      4224      4222      4248      4248      4249      4248      4250
      4250      4251      4250      4252      4250      4253      4248      4254
      4254      4255      4254      4256      4254      4257      4257      4258
      4257      4259      4257      4260      4260      4261      4260      4262
      4260      4263      4263      4264      4263      4265      4265      4266
      4265      4267      4265      4268      4263      4269      4269      4270
      4269      4271      4269      4272      4273      4277      4273      4281
      4273      4285      4277      4278      4277      4279      4277      4280
      4281      4282      4281      4283      4281      4284      4285      4286
      4285      4287      4285      4288      4273      4274      4274      4275
      4274      4276      4274      4289      4289      4290      4289      4291
      4289      4295      4296      4297      4295      4292      4292      4296
      4292      4293      4292      4294      4297      4298      4297      4299
      4297      4300      4300      4301      4300      4308      4300      4302
      4308      4309      4308      4310      4308      4311      4302      4303
      4303      4305      4303      4304      4305      4306      4305      4307
      4305      4317      4317      4318      4317      4319      4317      4320
      4320      4321      4320      4322      4320      4323      4323      4324
      4323      4325      4323      4326      4326      4327      4326      4328
      4326      4329      4329      4330      4329      4331      4329      4332
      4332      4333      4332      4334      4332      4335      4335      4336
      4335      4337      4337      4338      4337      4339      4339      4340
      4339      4341      4339      4342      4342      4343      4342      4344
      4342      4345      4345      4346      4345      4347      4345      4348
      4348      4349      4348      4350      4348      4351      4351      4352
      4351      4353      4351      4354      4354      4355      4354      4356
      4354      4357      4357      4358      4357      4359      4357      4360
      4360      4361      4360      4362      4360      4363      4311      4312
      4312      4314      4312      4313      4314      4315      4314      4316
      4314      4364      4364      4365      4364      4366      4364      4367
      4367      4368      4367      4369      4367      4370      4370      4371
      4370      4372      4370      4373      4373      4374      4373      4375
      4373      4376      4376      4377      4376      4378      4376      4379
      4379      4380      4379      4381      4379      4382      4382      4383
      4382      4384      4384      4385      4384      4386      4386      4387
      4386      4388      4386      4389      4389      4390      4389      4391
      4389      4392      4392      4393      4392      4394      4392      4395
      4395      4396      4395      4397      4395      4398      4398      4399
      4398      4400      4398      4401      4401      4402      4401      4403
      4401      4404      4404      4405      4404      4406      4404      4407
      4407      4408      4407      4409      4407      4410      4411      4413
      4411      4412      4413      4414      4411      4457      4457      4458
      4457      4459      4457      4454      4454      4455      4454      4456
      4411      4415      4415      4416      4415      4417      4415      4418
      4418      4449      4449      4454      4449      4450      4450      4451
      4450      4452      4450      4453      4418      4419      4419      4420
      4419      4421      4421      4422      4421      4423      4421      4424
      4424      4425      4424      4447      4447      4448      4447      4449
      4424      4426      4426      4427      4426      4436      4436      4441
      4441      4442      4441      4443      4441      4444      4444      4445
      4444      4446      4444      4447      4436      4437      4437      4438
      4437      4439      4437      4440      4426      4428      4428      4429
      4428      4430      4428      4431      4431      4432      4431      4433
      4431      4434      4434      4435      4434      4436      4434      4460
      4460      4461      4460      4462      4462      4463      4462      4464
      4462      4465      4460      4466      4466      4467      4466      4468
      4466      4469      4469      4470      4469      4471      4469      4472
      4472      4473      4472      4474      4472      4475      4475      4476
      4475      4477      4477      4478      4477      4479      4477      4480
      4475      4481      4481      4482      4481      4483      4481      4484
      4485      4489      4485      4493      4485      4497      4489      4490
      4489      4491      4489      4492      4493      4494      4493      4495
      4493      4496      4497      4498      4497      4499      4497      4500
      4485      4486      4486      4487      4486      4488      4486      4501
      4501      4502      4501      4503      4501      4507      4508      4509
      4507      4504      4504      4508      4504      4505      4504      4506
      4509      4510      4509      4511      4509      4512      4512      4513
      4512      4520      4512      4514      4520      4521      4520      4522
      4520      4523      4514      4515      4515      4517      4515      4516
      4517      4518      4517      4519      4517      4529      4529      4530
      4529      4531      4529      4532      4532      4533      4532      4534
      4532      4535      4535      4536      4535      4537      4535      4538
      4538      4539      4538      4540      4538      4541      4541      4542
      4541      4543      4541      4544      4544      4545      4544      4546
      4544      4547      4547      4548      4547      4549      4549      4550
      4549      4551      4551      4552      4551      4553      4551      4554
      4554      4555      4554      4556      4554      4557      4557      4558
      4557      4559      4557      4560      4560      4561      4560      4562
      4560      4563      4563      4564      4563      4565      4563      4566
      4566      4567      4566      4568      4566      4569      4569      4570
      4569      4571      4569      4572      4572      4573      4572      4574
      4572      4575      4523      4524      4524      4526      4524      4525
      4526      4527      4526      4528      4526      4576      4576      4577
      4576      4578      4576      4579      4579      4580      4579      4581
      4579      4582      4582      4583      4582      4584      4582      4585
      4585      4586      4585      4587      4585      4588      4588      4589
      4588      4590      4588      4591      4591      4592      4591      4593
      4591      4594      4594      4595      4594      4596      4596      4597
      4596      4598      4598      4599      4598      4600      4598      4601
      4601      4602      4601      4603      4601      4604      4604      4605
      4604      4606      4604      4607      4607      4608      4607      4609
      4607      4610      4610      4611      4610      4612      4610      4613
      4613      4614      4613      4615      4613      4616      4616      4617
      4616      4618      4616      4619      4619      4620      4619      4621
      4619      4622      4623      4627      4623      4631      4623      4635
      4627      4628      4627      4629      4627      4630      4631      4632
      4631      4633      4631      4634      4635      4636      4635      4637
      4635      4638      4623      4624      4624      4625      4624      4626
      4624      4639      4639      4640      4639      4641      4639      4645
      4646      4647      4645      4642      4642      4646      4642      4643
      4642      4644      4647      4648      4647      4649      4647      4650
      4650      4651      4650      4658      4650      4652      4658      4659
      4658      4660      4658      4661      4652      4653      4653      4655
      4653      4654      4655      4656      4655      4657      4655      4667
      4667      4668      4667      4669      4667      4670      4670      4671
      4670      4672      4670      4673      4673      4674      4673      4675
      4673      4676      4676      4677      4676      4678      4676      4679
      4679      4680      4679      4681      4679      4682      4682      4683
      4682      4684      4682      4685      4685      4686      4685      4687
      4687      4688      4687      4689      4689      4690      4689      4691
      4689      4692      4692      4693      4692      4694      4692      4695
      4695      4696      4695      4697      4695      4698      4698      4699
      4698      4700      4698      4701      4701      4702      4701      4703
      4701      4704      4704      4705      4704      4706      4704      4707
      4707      4708      4707      4709      4707      4710      4710      4711
      4710      4712      4710      4713      4661      4662      4662      4664
      4662      4663      4664      4665      4664      4666      4664      4714
      4714      4715      4714      4716      4714      4717      4717      4718
      4717      4719      4717      4720      4720      4721      4720      4722
      4720      4723      4723      4724      4723      4725      4723      4726
      4726      4727      4726      4728      4726      4729      4729      4730
      4729      4731      4729      4732      4732      4733      4732      4734
      4734      4735      4734      4736      4736      4737      4736      4738
      4736      4739      4739      4740      4739      4741      4739      4742
      4742      4743      4742      4744      4742      4745      4745      4746
      4745      4747      4745      4748      4748      4749      4748      4750
      4748      4751      4751      4752      4751      4753      4751      4754
      4754      4755      4754      4756      4754      4757      4757      4758
      4757      4759      4757      4760      4761      4762      4761      4763
      4761      4764      4761      4765      4765      4766      4765      4767
      4765      4768      4768      4769      4768      4770      4768      4775
      4775      4771      4771      4774      4771      4772      4771      4773
      4776      4777      4776      4778      4776      4779      4776      4774
      4779      4780      4779      4787      4779      4781      4787      4788
      4787      4789      4787      4790      4781      4782      4782      4784
      4782      4783      4784      4785      4784      4786      4784      4796
      4796      4797      4796      4798      4796      4799      4799      4800
      4799      4801      4799      4802      4802      4803      4802      4804
      4802      4805      4805      4806      4805      4807      4805      4808
      4808      4809      4808      4810      4808      4811      4811      4812
      4811      4813      4811      4814      4814      4815      4814      4816
      4816      4817      4816      4818      4818      4819      4818      4820
      4818      4821      4821      4822      4821      4823      4821      4824
      4824      4825      4824      4826      4824      4827      4827      4828
      4827      4829      4827      4830      4830      4831      4830      4832
      4830      4833      4833      4834      4833      4835      4833      4836
      4836      4837      4836      4838      4836      4839      4839      4840
      4839      4841      4839      4842      4790      4791      4791      4793
      4791      4792      4793      4794      4793      4795      4793      4843
      4843      4844      4843      4845      4843      4846      4846      4847
      4846      4848      4846      4849      4849      4850      4849      4851
      4849      4852      4852      4853      4852      4854      4852      4855
      4855      4856      4855      4857      4855      4858      4858      4859
      4858      4860      4858      4861      4861      4862      4861      4863
      4863      4864      4863      4865      4865      4866      4865      4867
      4865      4868      4868      4869      4868      4870      4868      4871
      4871      4872      4871      4873      4871      4874      4874      4875
      4874      4876      4874      4877      4877      4878      4877      4879
      4877      4880      4880      4881      4880      4882      4880      4883
      4883      4884      4883      4885      4883      4886      4886      4887
      4886      4888      4886      4889      4890      4892      4890      4891
      4892      4893      4890      4936      4936      4937      4936      4938
      4936      4933      4933      4934      4933      4935      4890      4894
      4894      4895      4894      4896      4894      4897      4897      4928
      4928      4933      4928      4929      4929      4930      4929      4931
      4929      4932      4897      4898      4898      4899      4898      4900
      4900      4901      4900      4902      4900      4903      4903      4904
      4903      4926      4926      4927      4926      4928      4903      4905
      4905      4906      4905      4915      4915      4920      4920      4921
      4920      4922      4920      4923      4923      4924      4923      4925
      4923      4926      4915      4916      4916      4917      4916      4918
      4916      4919      4905      4907      4907      4908      4907      4909
      4907      4910      4910      4911      4910      4912      4910      4913
      4913      4914      4913      4915      4913      4939      4939      4940
      4939      4941      4941      4942      4941      4943      4941      4944
      4939      4945      4945      4946      4945      4947      4945      4948
      4948      4949      4948      4950      4948      4951      4951      4952
      4951      4953      4951      4954      4954      4955      4954      4956
      4956      4957      4956      4958      4956      4959      4954      4960
      4960      4961      4960      4962      4960      4963      4964      4965
      4964      4966      4964      4967      4964      4968      4968      4969
      4968      4970      4968      4971      4971      4972      4971      4973
      4971      4978      4978      4974      4974      4977      4974      4975
      4974      4976      4979      4980      4979      4981      4979      4982
      4979      4977      4982      4983      4982      4990      4982      4984
      4990      4991      4990      4992      4990      4993      4984      4985
      4985      4987      4985      4986      4987      4988      4987      4989
      4987      4999      4999      5000      4999      5001      4999      5002
      5002      5003      5002      5004      5002      5005      5005      5006
      5005      5007      5005      5008      5008      5009      5008      5010
      5008      5011      5011      5012      5011      5013      5011      5014
      5014      5015      5014      5016      5014      5017      5017      5018
      5017      5019      5019      5020      5019      5021      5021      5022
      5021      5023      5021      5024      5024      5025      5024      5026
      5024      5027      5027      5028      5027      5029      5027      5030
      5030      5031      5030      5032      5030      5033      5033      5034
      5033      5035      5033      5036      5036      5037      5036      5038
      5036      5039      5039      5040      5039      5041      5039      5042
      5042      5043      5042      5044      5042      5045      4993      4994
      4994      4996      4994      4995      4996      4997      4996      4998
      4996      5046      5046      5047      5046      5048      5046      5049
      5049      5050      5049      5051      5049      5052      5052      5053
      5052      5054      5052      5055      5055      5056      5055      5057
      5055      5058      5058      5059      5058      5060      5058      5061
      5061      5062      5061      5063      5061      5064      5064      5065
      5064      5066      5066      5067      5066      5068      5068      5069
      5068      5070      5068      5071      5071      5072      5071      5073
      5071      5074      5074      5075      5074      5076      5074      5077
      5077      5078      5077      5079      5077      5080      5080      5081
      5080      5082      5080      5083      5083      5084      5083      5085
      5083      5086      5086      5087      5086      5088      5086      5089
      5089      5090      5089      5091      5089      5092      5093      5094
      5093      5095      5093      5096      5093      5097      5097      5098
      5097      5099      5097      5100      5100      5101      5100      5102
      5100      5107      5107      5103      5103      5106      5103      5104
      5103      5105      5108      5109      5108      5110      5108      5111
      5108      5106      5111      5112      5111      5119      5111      5113
      5119      5120      5119      5121      5119      5122      5113      5114
      5114      5116      5114      5115      5116      5117      5116      5118
      5116      5128      5128      5129      5128      5130      5128      5131
      5131      5132      5131      5133      5131      5134      5134      5135
      5134      5136      5134      5137      5137      5138      5137      5139
      5137      5140      5140      5141      5140      5142      5140      5143
      5143      5144      5143      5145      5143      5146      5146      5147
      5146      5148      5148      5149      5148      5150      5150      5151
      5150      5152      5150      5153      5153      5154      5153      5155
      5153      5156      5156      5157      5156      5158      5156      5159
      5159      5160      5159      5161      5159      5162      5162      5163
      5162      5164      5162      5165      5165      5166      5165      5167
      5165      5168      5168      5169      5168      5170      5168      5171
      5171      5172      5171      5173      5171      5174      5122      5123
      5123      5125      5123      5124      5125      5126      5125      5127
      5125      5175      5175      5176      5175      5177      5175      5178
      5178      5179      5178      5180      5178      5181      5181      5182
      5181      5183      5181      5184      5184      5185      5184      5186
      5184      5187      5187      5188      5187      5189      5187      5190
      5190      5191      5190      5192      5190      5193      5193      5194
      5193      5195      5195      5196      5195      5197      5197      5198
      5197      5199      5197      5200      5200      5201      5200      5202
      5200      5203      5203      5204      5203      5205      5203      5206
      5206      5207      5206      5208      5206      5209      5209      5210
      5209      5211      5209      5212      5212      5213      5212      5214
      5212      5215      5215      5216      5215      5217      5215      5218
      5218      5219      5218      5220      5218      5221      5222      5226
      5222      5230      5222      5234      5226      5227      5226      5228
      5226      5229      5230      5231      5230      5232      5230      5233
      5234      5235      5234      5236      5234      5237      5222      5223
      5223      5224      5223      5225      5223      5238      5238      5239
      5238      5240      5238      5244      5245      5246      5244      5241
      5241      5245      5241      5242      5241      5243      5246      5247
      5246      5248      5246      5249      5249      5250      5249      5257
      5249      5251      5257      5258      5257      5259      5257      5260
      5251      5252      5252      5254      5252      5253      5254      5255
      5254      5256      5254      5266      5266      5267      5266      5268
      5266      5269      5269      5270      5269      5271      5269      5272
      5272      5273      5272      5274      5272      5275      5275      5276
      5275      5277      5275      5278      5278      5279      5278      5280
      5278      5281      5281      5282      5281      5283      5281      5284
      5284      5285      5284      5286      5286      5287      5286      5288
      5288      5289      5288      5290      5288      5291      5291      5292
      5291      5293      5291      5294      5294      5295      5294      5296
      5294      5297      5297      5298      5297      5299      5297      5300
      5300      5301      5300      5302      5300      5303      5303      5304
      5303      5305      5303      5306      5306      5307      5306      5308
      5306      5309      5309      5310      5309      5311      5309      5312
      5260      5261      5261      5263      5261      5262      5263      5264
      5263      5265      5263      5313      5313      5314      5313      5315
      5313      5316      5316      5317      5316      5318      5316      5319
      5319      5320      5319      5321      5319      5322      5322      5323
      5322      5324      5322      5325      5325      5326      5325      5327
      5325      5328      5328      5329      5328      5330      5328      5331
      5331      5332      5331      5333      5333      5334      5333      5335
      5335      5336      5335      5337      5335      5338      5338      5339
      5338      5340      5338      5341      5341      5342      5341      5343
      5341      5344      5344      5345      5344      5346      5344      5347
      5347      5348      5347      5349      5347      5350      5350      5351
      5350      5352      5350      5353      5353      5354      5353      5355
      5353      5356      5356      5357      5356      5358      5356      5359
      5360      5361      5360      5362      5360      5363      5360      5364
      5364      5365      5364      5366      5364      5367      5367      5368
      5367      5369      5367      5374      5374      5370      5370      5373
      5370      5371      5370      5372      5375      5376      5375      5377
      5375      5378      5375      5373      5378      5379      5378      5386
      5378      5380      5386      5387      5386      5388      5386      5389
      5380      5381      5381      5383      5381      5382      5383      5384
      5383      5385      5383      5395      5395      5396      5395      5397
      5395      5398      5398      5399      5398      5400      5398      5401
      5401      5402      5401      5403      5401      5404      5404      5405
      5404      5406      5404      5407      5407      5408      5407      5409
      5407      5410      5410      5411      5410      5412      5410      5413
      5413      5414      5413      5415      5415      5416      5415      5417
      5417      5418      5417      5419      5417      5420      5420      5421
      5420      5422      5420      5423      5423      5424      5423      5425
      5423      5426      5426      5427      5426      5428      5426      5429
      5429      5430      5429      5431      5429      5432      5432      5433
      5432      5434      5432      5435      5435      5436      5435      5437
      5435      5438      5438      5439      5438      5440      5438      5441
      5389      5390      5390      5392      5390      5391      5392      5393
      5392      5394      5392      5442      5442      5443      5442      5444
      5442      5445      5445      5446      5445      5447      5445      5448
      5448      5449      5448      5450      5448      5451      5451      5452
      5451      5453      5451      5454      5454      5455      5454      5456
      5454      5457      5457      5458      5457      5459      5457      5460
      5460      5461      5460      5462      5462      5463      5462      5464
      5464      5465      5464      5466      5464      5467      5467      5468
      5467      5469      5467      5470      5470      5471      5470      5472
      5470      5473      5473      5474      5473      5475      5473      5476
      5476      5477      5476      5478      5476      5479      5479      5480
      5479      5481      5479      5482      5482      5483      5482      5484
      5482      5485      5485      5486      5485      5487      5485      5488
      5489      5493      5489      5497      5489      5501      5493      5494
      5493      5495      5493      5496      5497      5498      5497      5499
      5497      5500      5501      5502      5501      5503      5501      5504
      5489      5490      5490      5491      5490      5492      5490      5505
      5505      5506      5505      5507      5505      5511      5512      5513
      5511      5508      5508      5512      5508      5509      5508      5510
      5513      5514      5513      5515      5513      5516      5516      5517
      5516      5524      5516      5518      5524      5525      5524      5526
      5524      5527      5518      5519      5519      5521      5519      5520
      5521      5522      5521      5523      5521      5533      5533      5534
      5533      5535      5533      5536      5536      5537      5536      5538
      5536      5539      5539      5540      5539      5541      5539      5542
      5542      5543      5542      5544      5542      5545      5545      5546
      5545      5547      5545      5548      5548      5549      5548      5550
      5548      5551      5551      5552      5551      5553      5553      5554
      5553      5555      5555      5556      5555      5557      5555      5558
      5558      5559      5558      5560      5558      5561      5561      5562
      5561      5563      5561      5564      5564      5565      5564      5566
      5564      5567      5567      5568      5567      5569      5567      5570
      5570      5571      5570      5572      5570      5573      5573      5574
      5573      5575      5573      5576      5576      5577      5576      5578
      5576      5579      5527      5528      5528      5530      5528      5529
      5530      5531      5530      5532      5530      5580      5580      5581
      5580      5582      5580      5583      5583      5584      5583      5585
      5583      5586      5586      5587      5586      5588      5586      5589
      5589      5590      5589      5591      5589      5592      5592      5593
      5592      5594      5592      5595      5595      5596      5595      5597
      5595      5598      5598      5599      5598      5600      5600      5601
      5600      5602      5602      5603      5602      5604      5602      5605
      5605      5606      5605      5607      5605      5608      5608      5609
      5608      5610      5608      5611      5611      5612      5611      5613
      5611      5614      5614      5615      5614      5616      5614      5617
      5617      5618      5617      5619      5617      5620      5620      5621
      5620      5622      5620      5623      5623      5624      5623      5625
      5623      5626      5627      5628      5627      5629      5627      5630
      5627      5631      5631      5632      5631      5633      5631      5634
      5634      5635      5634      5636      5634      5641      5641      5637
      5637      5640      5637      5638      5637      5639      5642      5643
      5642      5644      5642      5645      5642      5640      5645      5646
      5645      5653      5645      5647      5653      5654      5653      5655
      5653      5656      5647      5648      5648      5650      5648      5649
      5650      5651      5650      5652      5650      5662      5662      5663
      5662      5664      5662      5665      5665      5666      5665      5667
      5665      5668      5668      5669      5668      5670      5668      5671
      5671      5672      5671      5673      5671      5674      5674      5675
      5674      5676      5674      5677      5677      5678      5677      5679
      5677      5680      5680      5681      5680      5682      5682      5683
      5682      5684      5684      5685      5684      5686      5684      5687
      5687      5688      5687      5689      5687      5690      5690      5691
      5690      5692      5690      5693      5693      5694      5693      5695
      5693      5696      5696      5697      5696      5698      5696      5699
      5699      5700      5699      5701      5699      5702      5702      5703
      5702      5704      5702      5705      5705      5706      5705      5707
      5705      5708      5656      5657      5657      5659      5657      5658
      5659      5660      5659      5661      5659      5709      5709      5710
      5709      5711      5709      5712      5712      5713      5712      5714
      5712      5715      5715      5716      5715      5717      5715      5718
      5718      5719      5718      5720      5718      5721      5721      5722
      5721      5723      5721      5724      5724      5725      5724      5726
      5724      5727      5727      5728      5727      5729      5729      5730
      5729      5731      5731      5732      5731      5733      5731      5734
      5734      5735      5734      5736      5734      5737      5737      5738
      5737      5739      5737      5740      5740      5741      5740      5742
      5740      5743      5743      5744      5743      5745      5743      5746
      5746      5747      5746      5748      5746      5749      5749      5750
      5749      5751      5749      5752      5752      5753      5752      5754
      5752      5755      5756      5760      5756      5764      5756      5768
      5760      5761      5760      5762      5760      5763      5764      5765
      5764      5766      5764      5767      5768      5769      5768      5770
      5768      5771      5756      5757      5757      5758      5757      5759
      5757      5772      5772      5773      5772      5774      5772      5778
      5779      5780      5778      5775      5775      5779      5775      5776
      5775      5777      5780      5781      5780      5782      5780      5783
      5783      5784      5783      5791      5783      5785      5791      5792
      5791      5793      5791      5794      5785      5786      5786      5788
      5786      5787      5788      5789      5788      5790      5788      5800
      5800      5801      5800      5802      5800      5803      5803      5804
      5803      5805      5803      5806      5806      5807      5806      5808
      5806      5809      5809      5810      5809      5811      5809      5812
      5812      5813      5812      5814      5812      5815      5815      5816
      5815      5817      5815      5818      5818      5819      5818      5820
      5820      5821      5820      5822      5822      5823      5822      5824
      5822      5825      5825      5826      5825      5827      5825      5828
      5828      5829      5828      5830      5828      5831      5831      5832
      5831      5833      5831      5834      5834      5835      5834      5836
      5834      5837      5837      5838      5837      5839      5837      5840
      5840      5841      5840      5842      5840      5843      5843      5844
      5843      5845      5843      5846      5794      5795      5795      5797
      5795      5796      5797      5798      5797      5799      5797      5847
      5847      5848      5847      5849      5847      5850      5850      5851
      5850      5852      5850      5853      5853      5854      5853      5855
      5853      5856      5856      5857      5856      5858      5856      5859
      5859      5860      5859      5861      5859      5862      5862      5863
      5862      5864      5862      5865      5865      5866      5865      5867
      5867      5868      5867      5869      5869      5870      5869      5871
      5869      5872      5872      5873      5872      5874      5872      5875
      5875      5876      5875      5877      5875      5878      5878      5879
      5878      5880      5878      5881      5881      5882      5881      5883
      5881      5884      5884      5885      5884      5886      5884      5887
      5887      5888      5887      5889      5887      5890      5890      5891
      5890      5892      5890      5893      5894      5896      5894      5895
      5896      5897      5894      5940      5940      5941      5940      5942
      5940      5937      5937      5938      5937      5939      5894      5898
      5898      5899      5898      5900      5898      5901      5901      5932
      5932      5937      5932      5933      5933      5934      5933      5935
      5933      5936      5901      5902      5902      5903      5902      5904
      5904      5905      5904      5906      5904      5907      5907      5908
      5907      5930      5930      5931      5930      5932      5907      5909
      5909      5910      5909      5919      5919      5924      5924      5925
      5924      5926      5924      5927      5927      5928      5927      5929
      5927      5930      5919      5920      5920      5921      5920      5922
      5920      5923      5909      5911      5911      5912      5911      5913
      5911      5914      5914      5915      5914      5916      5914      5917
      5917      5918      5917      5919      5917      5943      5943      5944
      5943      5945      5945      5946      5945      5947      5945      5948
      5943      5949      5949      5950      5949      5951      5949      5952
      5952      5953      5952      5954      5952      5955      5955      5956
      5955      5957      5955      5958      5958      5959      5958      5960
      5960      5961      5960      5962      5960      5963      5958      5964
      5964      5965      5964      5966      5964      5967      6043      6044
      6043      6045      6043      6046      6043      6040      6040      6041
      6040      6042      6040      6037      6037      6038      6037      6039
      6037      6034      6034      6035      6034      6036      6034      6031
      6031      6032      6031      6033      6031      6028      6028      6029
      6028      6030      6028      6025      6025      6026      6025      6027
      6025      6022      6022      6023      6022      6024      6022      6019
      6019      6020      6019      6021      6019      6016      6016      6017
      6016      6018      6016      6013      6013      6014      6013      6015
      6013      6010      6010      6011      6010      6012      6010      6007
      6007      6008      6007      6009      6007      6005      6005      6006
      6003      6004      6003      5999      5999      6000      5999      6001
      6001      6002      5999      5997      5997      5998      5997      5992
      5992      5993      5992      5994      5992      5990      5990      5987
      5991      5987      5988      5987      5989      5987      5991      5984
      5984      5985      5984      5986      5984      5981      5981      5982
      5981      5983      5981      5968      5968      5977      5968      5973
      5968      5969      5977      5978      5977      5979      5977      5980
      5973      5974      5973      5975      5973      5976      5969      5970
      5969      5971      5969      5972      5997      5995      5995      5996
      5995      6047      6047      6049      6049      6050      6049      6051
      6049      6052      6052      6053      6052      6054      6052      6055
      6055      6056      6055      6057      6055      6058      6058      6059
      6058      6060      6058      6061      6061      6062      6061      6063
      6061      6064      6064      6065      6064      6066      6064      6067
      6067      6068      6067      6069      6067      6070      6070      6071
      6070      6072      6070      6073      6073      6074      6073      6075
      6073      6076      6076      6077      6076      6078      6076      6079
      6079      6080      6079      6081      6079      6082      6082      6083
      6082      6084      6082      6085      6085      6086      6085      6087
      6085      6088      6088      6089      6088      6090      6088      6091
      6091      6092      6091      6093      6091      6094      6094      6095
      6094      6096      6094      6097      6097      6098      6097      6099
      6097      6100      6100      6101      6100      6102      6100      6103
      6103      6104      6103      6105      6103      6106      6106      6107
      6106      6108      6106      6109      6109      6110      6109      6111
      6109      6112      6112      6113      6112      6114      6112      6115
      6003      6005      6047      6048      6191      6192      6191      6193
      6191      6194      6191      6188      6188      6189      6188      6190
      6188      6185      6185      6186      6185      6187      6185      6182
      6182      6183      6182      6184      6182      6179      6179      6180
      6179      6181      6179      6176      6176      6177      6176      6178
      6176      6173      6173      6174      6173      6175      6173      6170
      6170      6171      6170      6172      6170      6167      6167      6168
      6167      6169      6167      6164      6164      6165      6164      6166
      6164      6161      6161      6162      6161      6163      6161      6158
      6158      6159      6158      6160      6158      6155      6155      6156
      6155      6157      6155      6153      6153      6154      6151      6152
      6151      6147      6147      6148      6147      6149      6149      6150
      6147      6145      6145      6146      6145      6140      6140      6141
      6140      6142      6140      6138      6138      6135      6139      6135
      6136      6135      6137      6135      6139      6132      6132      6133
      6132      6134      6132      6129      6129      6130      6129      6131
      6129      6116      6116      6125      6116      6121      6116      6117
      6125      6126      6125      6127      6125      6128      6121      6122
      6121      6123      6121      6124      6117      6118      6117      6119
      6117      6120      6145      6143      6143      6144      6143      6195
      6195      6197      6197      6198      6197      6199      6197      6200
      6200      6201      6200      6202      6200      6203      6203      6204
      6203      6205      6203      6206      6206      6207      6206      6208
      6206      6209      6209      6210      6209      6211      6209      6212
      6212      6213      6212      6214      6212      6215      6215      6216
      6215      6217      6215      6218      6218      6219      6218      6220
      6218      6221      6221      6222      6221      6223      6221      6224
      6224      6225      6224      6226      6224      6227      6227      6228
      6227      6229      6227      6230      6230      6231      6230      6232
      6230      6233      6233      6234      6233      6235      6233      6236
      6236      6237      6236      6238      6236      6239      6239      6240
      6239      6241      6239      6242      6242      6243      6242      6244
      6242      6245      6245      6246      6245      6247      6245      6248
      6248      6249      6248      6250      6248      6251      6251      6252
      6251      6253      6251      6254      6254      6255      6254      6256
      6254      6257      6257      6258      6257      6259      6257      6260
      6260      6261      6260      6262      6260      6263      6151      6153
      6195      6196      6264      6265      6264      6266      6264      6267
      6264      6268      6268      6269      6268      6270      6268      6271
      6271      6272      6271      6273      6271      6278      6278      6274
      6274      6277      6274      6275      6274      6276      6279      6280
      6279      6281      6279      6282      6279      6277      6282      6283
      6282      6290      6282      6284      6290      6291      6290      6292
      6290      6293      6284      6285      6285      6287      6285      6286
      6287      6288      6287      6289      6287      6299      6299      6300
      6299      6301      6299      6302      6302      6303      6302      6304
      6302      6305      6305      6306      6305      6307      6305      6308
      6308      6309      6308      6310      6308      6311      6311      6312
      6311      6313      6311      6314      6314      6315      6314      6316
      6314      6317      6317      6318      6317      6319      6319      6320
      6319      6321      6321      6322      6321      6323      6321      6324
      6324      6325      6324      6326      6324      6327      6327      6328
      6327      6329      6327      6330      6330      6331      6330      6332
      6330      6333      6333      6334      6333      6335      6333      6336
      6336      6337      6336      6338      6336      6339      6339      6340
      6339      6341      6339      6342      6342      6343      6342      6344
      6342      6345      6293      6294      6294      6296      6294      6295
      6296      6297      6296      6298      6296      6346      6346      6347
      6346      6348      6346      6349      6349      6350      6349      6351
      6349      6352      6352      6353      6352      6354      6352      6355
      6355      6356      6355      6357      6355      6358      6358      6359
      6358      6360      6358      6361      6361      6362      6361      6363
      6361      6364      6364      6365      6364      6366      6366      6367
      6366      6368      6368      6369      6368      6370      6368      6371
      6371      6372      6371      6373      6371      6374      6374      6375
      6374      6376      6374      6377      6377      6378      6377      6379
      6377      6380      6380      6381      6380      6382      6380      6383
      6383      6384      6383      6385      6383      6386      6386      6387
      6386      6388      6386      6389      6389      6390      6389      6391
      6389      6392      6393      6397      6393      6401      6393      6405
      6397      6398      6397      6399      6397      6400      6401      6402
      6401      6403      6401      6404      6405      6406      6405      6407
      6405      6408      6393      6394      6394      6395      6394      6396
      6394      6409      6409      6410      6409      6411      6409      6415
      6416      6417      6415      6412      6412      6416      6412      6413
      6412      6414      6417      6418      6417      6419      6417      6420
      6420      6421      6420      6428      6420      6422      6428      6429
      6428      6430      6428      6431      6422      6423      6423      6425
      6423      6424      6425      6426      6425      6427      6425      6437
      6437      6438      6437      6439      6437      6440      6440      6441
      6440      6442      6440      6443      6443      6444      6443      6445
      6443      6446      6446      6447      6446      6448      6446      6449
      6449      6450      6449      6451      6449      6452      6452      6453
      6452      6454      6452      6455      6455      6456      6455      6457
      6457      6458      6457      6459      6459      6460      6459      6461
      6459      6462      6462      6463      6462      6464      6462      6465
      6465      6466      6465      6467      6465      6468      6468      6469
      6468      6470      6468      6471      6471      6472      6471      6473
      6471      6474      6474      6475      6474      6476      6474      6477
      6477      6478      6477      6479      6477      6480      6480      6481
      6480      6482      6480      6483      6431      6432      6432      6434
      6432      6433      6434      6435      6434      6436      6434      6484
      6484      6485      6484      6486      6484      6487      6487      6488
      6487      6489      6487      6490      6490      6491      6490      6492
      6490      6493      6493      6494      6493      6495      6493      6496
      6496      6497      6496      6498      6496      6499      6499      6500
      6499      6501      6499      6502      6502      6503      6502      6504
      6504      6505      6504      6506      6506      6507      6506      6508
      6506      6509      6509      6510      6509      6511      6509      6512
      6512      6513      6512      6514      6512      6515      6515      6516
      6515      6517      6515      6518      6518      6519      6518      6520
      6518      6521      6521      6522      6521      6523      6521      6524
      6524      6525      6524      6526      6524      6527      6527      6528
      6527      6529      6527      6530      6606      6607      6606      6608
      6606      6609      6606      6603      6603      6604      6603      6605
      6603      6600      6600      6601      6600      6602      6600      6597
      6597      6598      6597      6599      6597      6594      6594      6595
      6594      6596      6594      6591      6591      6592      6591      6593
      6591      6588      6588      6589      6588      6590      6588      6585
      6585      6586      6585      6587      6585      6582      6582      6583
      6582      6584      6582      6579      6579      6580      6579      6581
      6579      6576      6576      6577      6576      6578      6576      6573
      6573      6574      6573      6575      6573      6570      6570      6571
      6570      6572      6570      6568      6568      6569      6566      6567
      6566      6562      6562      6563      6562      6564      6564      6565
      6562      6560      6560      6561      6560      6555      6555      6556
      6555      6557      6555      6553      6553      6550      6554      6550
      6551      6550      6552      6550      6554      6547      6547      6548
      6547      6549      6547      6544      6544      6545      6544      6546
      6544      6531      6531      6540      6531      6536      6531      6532
      6540      6541      6540      6542      6540      6543      6536      6537
      6536      6538      6536      6539      6532      6533      6532      6534
      6532      6535      6560      6558      6558      6559      6558      6610
      6610      6612      6612      6613      6612      6614      6612      6615
      6615      6616      6615      6617      6615      6618      6618      6619
      6618      6620      6618      6621      6621      6622      6621      6623
      6621      6624      6624      6625      6624      6626      6624      6627
      6627      6628      6627      6629      6627      6630      6630      6631
      6630      6632      6630      6633      6633      6634      6633      6635
      6633      6636      6636      6637      6636      6638      6636      6639
      6639      6640      6639      6641      6639      6642      6642      6643
      6642      6644      6642      6645      6645      6646      6645      6647
      6645      6648      6648      6649      6648      6650      6648      6651
      6651      6652      6651      6653      6651      6654      6654      6655
      6654      6656      6654      6657      6657      6658      6657      6659
      6657      6660      6660      6661      6660      6662      6660      6663
      6663      6664      6663      6665      6663      6666      6666      6667
      6666      6668      6666      6669      6669      6670      6669      6671
      6669      6672      6672      6673      6672      6674      6672      6675
      6675      6676      6675      6677      6675      6678      6566      6568
      6610      6611      6679      6683      6679      6687      6679      6691
      6683      6684      6683      6685      6683      6686      6687      6688
      6687      6689      6687      6690      6691      6692      6691      6693
      6691      6694      6679      6680      6680      6681      6680      6682
      6680      6695      6695      6696      6695      6697      6695      6701
      6702      6703      6701      6698      6698      6702      6698      6699
      6698      6700      6703      6704      6703      6705      6703      6706
      6706      6707      6706      6714      6706      6708      6714      6715
      6714      6716      6714      6717      6708      6709      6709      6711
      6709      6710      6711      6712      6711      6713      6711      6723
      6723      6724      6723      6725      6723      6726      6726      6727
      6726      6728      6726      6729      6729      6730      6729      6731
      6729      6732      6732      6733      6732      6734      6732      6735
      6735      6736      6735      6737      6735      6738      6738      6739
      6738      6740      6738      6741      6741      6742      6741      6743
      6743      6744      6743      6745      6745      6746      6745      6747
      6745      6748      6748      6749      6748      6750      6748      6751
      6751      6752      6751      6753      6751      6754      6754      6755
      6754      6756      6754      6757      6757      6758      6757      6759
      6757      6760      6760      6761      6760      6762      6760      6763
      6763      6764      6763      6765      6763      6766      6766      6767
      6766      6768      6766      6769      6717      6718      6718      6720
      6718      6719      6720      6721      6720      6722      6720      6770
      6770      6771      6770      6772      6770      6773      6773      6774
      6773      6775      6773      6776      6776      6777      6776      6778
      6776      6779      6779      6780      6779      6781      6779      6782
      6782      6783      6782      6784      6782      6785      6785      6786
      6785      6787      6785      6788      6788      6789      6788      6790
      6790      6791      6790      6792      6792      6793      6792      6794
      6792      6795      6795      6796      6795      6797      6795      6798
      6798      6799      6798      6800      6798      6801      6801      6802
      6801      6803      6801      6804      6804      6805      6804      6806
      6804      6807      6807      6808      6807      6809      6807      6810
      6810      6811      6810      6812      6810      6813      6813      6814
      6813      6815      6813      6816      6817      6819      6817      6818
      6819      6820      6817      6863      6863      6864      6863      6865
      6863      6860      6860      6861      6860      6862      6817      6821
      6821      6822      6821      6823      6821      6824      6824      6855
      6855      6860      6855      6856      6856      6857      6856      6858
      6856      6859      6824      6825      6825      6826      6825      6827
      6827      6828      6827      6829      6827      6830      6830      6831
      6830      6853      6853      6854      6853      6855      6830      6832
      6832      6833      6832      6842      6842      6847      6847      6848
      6847      6849      6847      6850      6850      6851      6850      6852
      6850      6853      6842      6843      6843      6844      6843      6845
      6843      6846      6832      6834      6834      6835      6834      6836
      6834      6837      6837      6838      6837      6839      6837      6840
      6840      6841      6840      6842      6840      6866      6866      6867
      6866      6868      6868      6869      6868      6870      6868      6871
      6866      6872      6872      6873      6872      6874      6872      6875
      6875      6876      6875      6877      6875      6878      6878      6879
      6878      6880      6878      6881      6881      6882      6881      6883
      6883      6884      6883      6885      6883      6886      6881      6887
      6887      6888      6887      6889      6887      6890      6891      6892
      6891      6893      6891      6894      6891      6895      6895      6896
      6895      6897      6895      6898      6898      6899      6898      6900
      6898      6905      6905      6901      6901      6904      6901      6902
      6901      6903      6906      6907      6906      6908      6906      6909
      6906      6904      6909      6910      6909      6917      6909      6911
      6917      6918      6917      6919      6917      6920      6911      6912
      6912      6914      6912      6913      6914      6915      6914      6916
      6914      6926      6926      6927      6926      6928      6926      6929
      6929      6930      6929      6931      6929      6932      6932      6933
      6932      6934      6932      6935      6935      6936      6935      6937
      6935      6938      6938      6939      6938      6940      6938      6941
      6941      6942      6941      6943      6941      6944      6944      6945
      6944      6946      6946      6947      6946      6948      6948      6949
      6948      6950      6948      6951      6951      6952      6951      6953
      6951      6954      6954      6955      6954      6956      6954      6957
      6957      6958      6957      6959      6957      6960      6960      6961
      6960      6962      6960      6963      6963      6964      6963      6965
      6963      6966      6966      6967      6966      6968      6966      6969
      6969      6970      6969      6971      6969      6972      6920      6921
      6921      6923      6921      6922      6923      6924      6923      6925
      6923      6973      6973      6974      6973      6975      6973      6976
      6976      6977      6976      6978      6976      6979      6979      6980
      6979      6981      6979      6982      6982      6983      6982      6984
      6982      6985      6985      6986      6985      6987      6985      6988
      6988      6989      6988      6990      6988      6991      6991      6992
      6991      6993      6993      6994      6993      6995      6995      6996
      6995      6997      6995      6998      6998      6999      6998      7000
      6998      7001      7001      7002      7001      7003      7001      7004
      7004      7005      7004      7006      7004      7007      7007      7008
      7007      7009      7007      7010      7010      7011      7010      7012
      7010      7013      7013      7014      7013      7015      7013      7016
      7016      7017      7016      7018      7016      7019      7020      7022
      7020      7021      7022      7023      7020      7066      7066      7067
      7066      7068      7066      7063      7063      7064      7063      7065
      7020      7024      7024      7025      7024      7026      7024      7027
      7027      7058      7058      7063      7058      7059      7059      7060
      7059      7061      7059      7062      7027      7028      7028      7029
      7028      7030      7030      7031      7030      7032      7030      7033
      7033      7034      7033      7056      7056      7057      7056      7058
      7033      7035      7035      7036      7035      7045      7045      7050
      7050      7051      7050      7052      7050      7053      7053      7054
      7053      7055      7053      7056      7045      7046      7046      7047
      7046      7048      7046      7049      7035      7037      7037      7038
      7037      7039      7037      7040      7040      7041      7040      7042
      7040      7043      7043      7044      7043      7045      7043      7069
      7069      7070      7069      7071      7071      7072      7071      7073
      7071      7074      7069      7075      7075      7076      7075      7077
      7075      7078      7078      7079      7078      7080      7078      7081
      7081      7082      7081      7083      7081      7084      7084      7085
      7084      7086      7086      7087      7086      7088      7086      7089
      7084      7090      7090      7091      7090      7092      7090      7093
      7094      7098      7094      7102      7094      7106      7098      7099
      7098      7100      7098      7101      7102      7103      7102      7104
      7102      7105      7106      7107      7106      7108      7106      7109
      7094      7095      7095      7096      7095      7097      7095      7110
      7110      7111      7110      7112      7110      7116      7117      7118
      7116      7113      7113      7117      7113      7114      7113      7115
      7118      7119      7118      7120      7118      7121      7121      7122
      7121      7129      7121      7123      7129      7130      7129      7131
      7129      7132      7123      7124      7124      7126      7124      7125
      7126      7127      7126      7128      7126      7138      7138      7139
      7138      7140      7138      7141      7141      7142      7141      7143
      7141      7144      7144      7145      7144      7146      7144      7147
      7147      7148      7147      7149      7147      7150      7150      7151
      7150      7152      7150      7153      7153      7154      7153      7155
      7153      7156      7156      7157      7156      7158      7158      7159
      7158      7160      7160      7161      7160      7162      7160      7163
      7163      7164      7163      7165      7163      7166      7166      7167
      7166      7168      7166      7169      7169      7170      7169      7171
      7169      7172      7172      7173      7172      7174      7172      7175
      7175      7176      7175      7177      7175      7178      7178      7179
      7178      7180      7178      7181      7181      7182      7181      7183
      7181      7184      7132      7133      7133      7135      7133      7134
      7135      7136      7135      7137      7135      7185      7185      7186
      7185      7187      7185      7188      7188      7189      7188      7190
      7188      7191      7191      7192      7191      7193      7191      7194
      7194      7195      7194      7196      7194      7197      7197      7198
      7197      7199      7197      7200      7200      7201      7200      7202
      7200      7203      7203      7204      7203      7205      7205      7206
      7205      7207      7207      7208      7207      7209      7207      7210
      7210      7211      7210      7212      7210      7213      7213      7214
      7213      7215      7213      7216      7216      7217      7216      7218
      7216      7219      7219      7220      7219      7221      7219      7222
      7222      7223      7222      7224      7222      7225      7225      7226
      7225      7227      7225      7228      7228      7229      7228      7230
      7228      7231      7307      7308      7307      7309      7307      7310
      7307      7304      7304      7305      7304      7306      7304      7301
      7301      7302      7301      7303      7301      7298      7298      7299
      7298      7300      7298      7295      7295      7296      7295      7297
      7295      7292      7292      7293      7292      7294      7292      7289
      7289      7290      7289      7291      7289      7286      7286      7287
      7286      7288      7286      7283      7283      7284      7283      7285
      7283      7280      7280      7281      7280      7282      7280      7277
      7277      7278      7277      7279      7277      7274      7274      7275
      7274      7276      7274      7271      7271      7272      7271      7273
      7271      7269      7269      7270      7267      7268      7267      7263
      7263      7264      7263      7265      7265      7266      7263      7261
      7261      7262      7261      7256      7256      7257      7256      7258
      7256      7254      7254      7251      7255      7251      7252      7251
      7253      7251      7255      7248      7248      7249      7248      7250
      7248      7245      7245      7246      7245      7247      7245      7232
      7232      7241      7232      7237      7232      7233      7241      7242
      7241      7243      7241      7244      7237      7238      7237      7239
      7237      7240      7233      7234      7233      7235      7233      7236
      7261      7259      7259      7260      7259      7311      7311      7313
      7313      7314      7313      7315      7313      7316      7316      7317
      7316      7318      7316      7319      7319      7320      7319      7321
      7319      7322      7322      7323      7322      7324      7322      7325
      7325      7326      7325      7327      7325      7328      7328      7329
      7328      7330      7328      7331      7331      7332      7331      7333
      7331      7334      7334      7335      7334      7336      7334      7337
      7337      7338      7337      7339      7337      7340      7340      7341
      7340      7342      7340      7343      7343      7344      7343      7345
      7343      7346      7346      7347      7346      7348      7346      7349
      7349      7350      7349      7351      7349      7352      7352      7353
      7352      7354      7352      7355      7355      7356      7355      7357
      7355      7358      7358      7359      7358      7360      7358      7361
      7361      7362      7361      7363      7361      7364      7364      7365
      7364      7366      7364      7367      7367      7368      7367      7369
      7367      7370      7370      7371      7370      7372      7370      7373
      7373      7374      7373      7375      7373      7376      7376      7377
      7376      7378      7376      7379      7267      7269      7311      7312
      7455      7456      7455      7457      7455      7458      7455      7452
      7452      7453      7452      7454      7452      7449      7449      7450
      7449      7451      7449      7446      7446      7447      7446      7448
      7446      7443      7443      7444      7443      7445      7443      7440
      7440      7441      7440      7442      7440      7437      7437      7438
      7437      7439      7437      7434      7434      7435      7434      7436
      7434      7431      7431      7432      7431      7433      7431      7428
      7428      7429      7428      7430      7428      7425      7425      7426
      7425      7427      7425      7422      7422      7423      7422      7424
      7422      7419      7419      7420      7419      7421      7419      7417
      7417      7418      7415      7416      7415      7411      7411      7412
      7411      7413      7413      7414      7411      7409      7409      7410
      7409      7404      7404      7405      7404      7406      7404      7402
      7402      7399      7403      7399      7400      7399      7401      7399
      7403      7396      7396      7397      7396      7398      7396      7393
      7393      7394      7393      7395      7393      7380      7380      7389
      7380      7385      7380      7381      7389      7390      7389      7391
      7389      7392      7385      7386      7385      7387      7385      7388
      7381      7382      7381      7383      7381      7384      7409      7407
      7407      7408      7407      7459      7459      7461      7461      7462
      7461      7463      7461      7464      7464      7465      7464      7466
      7464      7467      7467      7468      7467      7469      7467      7470
      7470      7471      7470      7472      7470      7473      7473      7474
      7473      7475      7473      7476      7476      7477      7476      7478
      7476      7479      7479      7480      7479      7481      7479      7482
      7482      7483      7482      7484      7482      7485      7485      7486
      7485      7487      7485      7488      7488      7489      7488      7490
      7488      7491      7491      7492      7491      7493      7491      7494
      7494      7495      7494      7496      7494      7497      7497      7498
      7497      7499      7497      7500      7500      7501      7500      7502
      7500      7503      7503      7504      7503      7505      7503      7506
      7506      7507      7506      7508      7506      7509      7509      7510
      7509      7511      7509      7512      7512      7513      7512      7514
      7512      7515      7515      7516      7515      7517      7515      7518
      7518      7519      7518      7520      7518      7521      7521      7522
      7521      7523      7521      7524      7524      7525      7524      7526
      7524      7527      7415      7417      7459      7460      7528      7529
      7528      7530      7528      7531      7528      7532      7532      7533
      7532      7534      7532      7535      7535      7536      7535      7537
      7535      7542      7542      7538      7538      7541      7538      7539
      7538      7540      7543      7544      7543      7545      7543      7546
      7543      7541      7546      7547      7546      7554      7546      7548
      7554      7555      7554      7556      7554      7557      7548      7549
      7549      7551      7549      7550      7551      7552      7551      7553
      7551      7563      7563      7564      7563      7565      7563      7566
      7566      7567      7566      7568      7566      7569      7569      7570
      7569      7571      7569      7572      7572      7573      7572      7574
      7572      7575      7575      7576      7575      7577      7575      7578
      7578      7579      7578      7580      7578      7581      7581      7582
      7581      7583      7583      7584      7583      7585      7585      7586
      7585      7587      7585      7588      7588      7589      7588      7590
      7588      7591      7591      7592      7591      7593      7591      7594
      7594      7595      7594      7596      7594      7597      7597      7598
      7597      7599      7597      7600      7600      7601      7600      7602
      7600      7603      7603      7604      7603      7605      7603      7606
      7606      7607      7606      7608      7606      7609      7557      7558
      7558      7560      7558      7559      7560      7561      7560      7562
      7560      7610      7610      7611      7610      7612      7610      7613
      7613      7614      7613      7615      7613      7616      7616      7617
      7616      7618      7616      7619      7619      7620      7619      7621
      7619      7622      7622      7623      7622      7624      7622      7625
      7625      7626      7625      7627      7625      7628      7628      7629
      7628      7630      7630      7631      7630      7632      7632      7633
      7632      7634      7632      7635      7635      7636      7635      7637
      7635      7638      7638      7639      7638      7640      7638      7641
      7641      7642      7641      7643      7641      7644      7644      7645
      7644      7646      7644      7647      7647      7648      7647      7649
      7647      7650      7650      7651      7650      7652      7650      7653
      7653      7654      7653      7655      7653      7656      7657      7661
      7657      7665      7657      7669      7661      7662      7661      7663
      7661      7664      7665      7666      7665      7667      7665      7668
      7669      7670      7669      7671      7669      7672      7657      7658
      7658      7659      7658      7660      7658      7673      7673      7674
      7673      7675      7673      7679      7680      7681      7679      7676
      7676      7680      7676      7677      7676      7678      7681      7682
      7681      7683      7681      7684      7684      7685      7684      7692
      7684      7686      7692      7693      7692      7694      7692      7695
      7686      7687      7687      7689      7687      7688      7689      7690
      7689      7691      7689      7701      7701      7702      7701      7703
      7701      7704      7704      7705      7704      7706      7704      7707
      7707      7708      7707      7709      7707      7710      7710      7711
      7710      7712      7710      7713      7713      7714      7713      7715
      7713      7716      7716      7717      7716      7718      7716      7719
      7719      7720      7719      7721      7721      7722      7721      7723
      7723      7724      7723      7725      7723      7726      7726      7727
      7726      7728      7726      7729      7729      7730      7729      7731
      7729      7732      7732      7733      7732      7734      7732      7735
      7735      7736      7735      7737      7735      7738      7738      7739
      7738      7740      7738      7741      7741      7742      7741      7743
      7741      7744      7744      7745      7744      7746      7744      7747
      7695      7696      7696      7698      7696      7697      7698      7699
      7698      7700      7698      7748      7748      7749      7748      7750
      7748      7751      7751      7752      7751      7753      7751      7754
      7754      7755      7754      7756      7754      7757      7757      7758
      7757      7759      7757      7760      7760      7761      7760      7762
      7760      7763      7763      7764      7763      7765      7763      7766
      7766      7767      7766      7768      7768      7769      7768      7770
      7770      7771      7770      7772      7770      7773      7773      7774
      7773      7775      7773      7776      7776      7777      7776      7778
      7776      7779      7779      7780      7779      7781      7779      7782
      7782      7783      7782      7784      7782      7785      7785      7786
      7785      7787      7785      7788      7788      7789      7788      7790
      7788      7791      7791      7792      7791      7793      7791      7794
      7795      7799      7795      7803      7795      7807      7799      7800
      7799      7801      7799      7802      7803      7804      7803      7805
      7803      7806      7807      7808      7807      7809      7807      7810
      7795      7796      7796      7797      7796      7798      7796      7811
      7811      7812      7811      7813      7811      7817      7818      7819
      7817      7814      7814      7818      7814      7815      7814      7816
      7819      7820      7819      7821      7819      7822      7822      7823
      7822      7830      7822      7824      7830      7831      7830      7832
      7830      7833      7824      7825      7825      7827      7825      7826
      7827      7828      7827      7829      7827      7839      7839      7840
      7839      7841      7839      7842      7842      7843      7842      7844
      7842      7845      7845      7846      7845      7847      7845      7848
      7848      7849      7848      7850      7848      7851      7851      7852
      7851      7853      7851      7854      7854      7855      7854      7856
      7854      7857      7857      7858      7857      7859      7859      7860
      7859      7861      7861      7862      7861      7863      7861      7864
      7864      7865      7864      7866      7864      7867      7867      7868
      7867      7869      7867      7870      7870      7871      7870      7872
      7870      7873      7873      7874      7873      7875      7873      7876
      7876      7877      7876      7878      7876      7879      7879      7880
      7879      7881      7879      7882      7882      7883      7882      7884
      7882      7885      7833      7834      7834      7836      7834      7835
      7836      7837      7836      7838      7836      7886      7886      7887
      7886      7888      7886      7889      7889      7890      7889      7891
      7889      7892      7892      7893      7892      7894      7892      7895
      7895      7896      7895      7897      7895      7898      7898      7899
      7898      7900      7898      7901      7901      7902      7901      7903
      7901      7904      7904      7905      7904      7906      7906      7907
      7906      7908      7908      7909      7908      7910      7908      7911
      7911      7912      7911      7913      7911      7914      7914      7915
      7914      7916      7914      7917      7917      7918      7917      7919
      7917      7920      7920      7921      7920      7922      7920      7923
      7923      7924      7923      7925      7923      7926      7926      7927
      7926      7928      7926      7929      7929      7930      7929      7931
      7929      7932      7933      7935      7933      7934      7935      7936
      7933      7979      7979      7980      7979      7981      7979      7976
      7976      7977      7976      7978      7933      7937      7937      7938
      7937      7939      7937      7940      7940      7971      7971      7976
      7971      7972      7972      7973      7972      7974      7972      7975
      7940      7941      7941      7942      7941      7943      7943      7944
      7943      7945      7943      7946      7946      7947      7946      7969
      7969      7970      7969      7971      7946      7948      7948      7949
      7948      7958      7958      7963      7963      7964      7963      7965
      7963      7966      7966      7967      7966      7968      7966      7969
      7958      7959      7959      7960      7959      7961      7959      7962
      7948      7950      7950      7951      7950      7952      7950      7953
      7953      7954      7953      7955      7953      7956      7956      7957
      7956      7958      7956      7982      7982      7983      7982      7984
      7984      7985      7984      7986      7984      7987      7982      7988
      7988      7989      7988      7990      7988      7991      7991      7992
      7991      7993      7991      7994      7994      7995      7994      7996
      7994      7997      7997      7998      7997      7999      7999      8000
      7999      8001      7999      8002      7997      8003      8003      8004
      8003      8005      8003      8006      8007      8008      8007      8009
      8007      8010      8007      8011      8011      8012      8011      8013
      8011      8014      8014      8015      8014      8016      8014      8021
      8021      8017      8017      8020      8017      8018      8017      8019
      8022      8023      8022      8024      8022      8025      8022      8020
      8025      8026      8025      8033      8025      8027      8033      8034
      8033      8035      8033      8036      8027      8028      8028      8030
      8028      8029      8030      8031      8030      8032      8030      8042
      8042      8043      8042      8044      8042      8045      8045      8046
      8045      8047      8045      8048      8048      8049      8048      8050
      8048      8051      8051      8052      8051      8053      8051      8054
      8054      8055      8054      8056      8054      8057      8057      8058
      8057      8059      8057      8060      8060      8061      8060      8062
      8062      8063      8062      8064      8064      8065      8064      8066
      8064      8067      8067      8068      8067      8069      8067      8070
      8070      8071      8070      8072      8070      8073      8073      8074
      8073      8075      8073      8076      8076      8077      8076      8078
      8076      8079      8079      8080      8079      8081      8079      8082
      8082      8083      8082      8084      8082      8085      8085      8086
      8085      8087      8085      8088      8036      8037      8037      8039
      8037      8038      8039      8040      8039      8041      8039      8089
      8089      8090      8089      8091      8089      8092      8092      8093
      8092      8094      8092      8095      8095      8096      8095      8097
      8095      8098      8098      8099      8098      8100      8098      8101
      8101      8102      8101      8103      8101      8104      8104      8105
      8104      8106      8104      8107      8107      8108      8107      8109
      8109      8110      8109      8111      8111      8112      8111      8113
      8111      8114      8114      8115      8114      8116      8114      8117
      8117      8118      8117      8119      8117      8120      8120      8121
      8120      8122      8120      8123      8123      8124      8123      8125
      8123      8126      8126      8127      8126      8128      8126      8129
      8129      8130      8129      8131      8129      8132      8132      8133
      8132      8134      8132      8135      8136      8140      8136      8144
      8136      8148      8140      8141      8140      8142      8140      8143
      8144      8145      8144      8146      8144      8147      8148      8149
      8148      8150      8148      8151      8136      8137      8137      8138
      8137      8139      8137      8152      8152      8153      8152      8154
      8152      8158      8159      8160      8158      8155      8155      8159
      8155      8156      8155      8157      8160      8161      8160      8162
      8160      8163      8163      8164      8163      8171      8163      8165
      8171      8172      8171      8173      8171      8174      8165      8166
      8166      8168      8166      8167      8168      8169      8168      8170
      8168      8180      8180      8181      8180      8182      8180      8183
      8183      8184      8183      8185      8183      8186      8186      8187
      8186      8188      8186      8189      8189      8190      8189      8191
      8189      8192      8192      8193      8192      8194      8192      8195
      8195      8196      8195      8197      8195      8198      8198      8199
      8198      8200      8200      8201      8200      8202      8202      8203
      8202      8204      8202      8205      8205      8206      8205      8207
      8205      8208      8208      8209      8208      8210      8208      8211
      8211      8212      8211      8213      8211      8214      8214      8215
      8214      8216      8214      8217      8217      8218      8217      8219
      8217      8220      8220      8221      8220      8222      8220      8223
      8223      8224      8223      8225      8223      8226      8174      8175
      8175      8177      8175      8176      8177      8178      8177      8179
      8177      8227      8227      8228      8227      8229      8227      8230
      8230      8231      8230      8232      8230      8233      8233      8234
      8233      8235      8233      8236      8236      8237      8236      8238
      8236      8239      8239      8240      8239      8241      8239      8242
      8242      8243      8242      8244      8242      8245      8245      8246
      8245      8247      8247      8248      8247      8249      8249      8250
      8249      8251      8249      8252      8252      8253      8252      8254
      8252      8255      8255      8256      8255      8257      8255      8258
      8258      8259      8258      8260      8258      8261      8261      8262
      8261      8263      8261      8264      8264      8265      8264      8266
      8264      8267      8267      8268      8267      8269      8267      8270
      8270      8271      8270      8272      8270      8273      8274      8278
      8274      8282      8274      8286      8278      8279      8278      8280
      8278      8281      8282      8283      8282      8284      8282      8285
      8286      8287      8286      8288      8286      8289      8274      8275
      8275      8276      8275      8277      8275      8290      8290      8291
      8290      8292      8290      8296      8297      8298      8296      8293
      8293      8297      8293      8294      8293      8295      8298      8299
      8298      8300      8298      8301      8301      8302      8301      8309
      8301      8303      8309      8310      8309      8311      8309      8312
      8303      8304      8304      8306      8304      8305      8306      8307
      8306      8308      8306      8318      8318      8319      8318      8320
      8318      8321      8321      8322      8321      8323      8321      8324
      8324      8325      8324      8326      8324      8327      8327      8328
      8327      8329      8327      8330      8330      8331      8330      8332
      8330      8333      8333      8334      8333      8335      8333      8336
      8336      8337      8336      8338      8338      8339      8338      8340
      8340      8341      8340      8342      8340      8343      8343      8344
      8343      8345      8343      8346      8346      8347      8346      8348
      8346      8349      8349      8350      8349      8351      8349      8352
      8352      8353      8352      8354      8352      8355      8355      8356
      8355      8357      8355      8358      8358      8359      8358      8360
      8358      8361      8361      8362      8361      8363      8361      8364
      8312      8313      8313      8315      8313      8314      8315      8316
      8315      8317      8315      8365      8365      8366      8365      8367
      8365      8368      8368      8369      8368      8370      8368      8371
      8371      8372      8371      8373      8371      8374      8374      8375
      8374      8376      8374      8377      8377      8378      8377      8379
      8377      8380      8380      8381      8380      8382      8380      8383
      8383      8384      8383      8385      8385      8386      8385      8387
      8387      8388      8387      8389      8387      8390      8390      8391
      8390      8392      8390      8393      8393      8394      8393      8395
      8393      8396      8396      8397      8396      8398      8396      8399
      8399      8400      8399      8401      8399      8402      8402      8403
      8402      8404      8402      8405      8405      8406      8405      8407
      8405      8408      8408      8409      8408      8410      8408      8411
      8412      8416      8412      8420      8412      8424      8416      8417
      8416      8418      8416      8419      8420      8421      8420      8422
      8420      8423      8424      8425      8424      8426      8424      8427
      8412      8413      8413      8414      8413      8415      8413      8428
      8428      8429      8428      8430      8428      8434      8435      8436
      8434      8431      8431      8435      8431      8432      8431      8433
      8436      8437      8436      8438      8436      8439      8439      8440
      8439      8447      8439      8441      8447      8448      8447      8449
      8447      8450      8441      8442      8442      8444      8442      8443
      8444      8445      8444      8446      8444      8456      8456      8457
      8456      8458      8456      8459      8459      8460      8459      8461
      8459      8462      8462      8463      8462      8464      8462      8465
      8465      8466      8465      8467      8465      8468      8468      8469
      8468      8470      8468      8471      8471      8472      8471      8473
      8471      8474      8474      8475      8474      8476      8476      8477
      8476      8478      8478      8479      8478      8480      8478      8481
      8481      8482      8481      8483      8481      8484      8484      8485
      8484      8486      8484      8487      8487      8488      8487      8489
      8487      8490      8490      8491      8490      8492      8490      8493
      8493      8494      8493      8495      8493      8496      8496      8497
      8496      8498      8496      8499      8499      8500      8499      8501
      8499      8502      8450      8451      8451      8453      8451      8452
      8453      8454      8453      8455      8453      8503      8503      8504
      8503      8505      8503      8506      8506      8507      8506      8508
      8506      8509      8509      8510      8509      8511      8509      8512
      8512      8513      8512      8514      8512      8515      8515      8516
      8515      8517      8515      8518      8518      8519      8518      8520
      8518      8521      8521      8522      8521      8523      8523      8524
      8523      8525      8525      8526      8525      8527      8525      8528
      8528      8529      8528      8530      8528      8531      8531      8532
      8531      8533      8531      8534      8534      8535      8534      8536
      8534      8537      8537      8538      8537      8539      8537      8540
      8540      8541      8540      8542      8540      8543      8543      8544
      8543      8545      8543      8546      8546      8547      8546      8548
      8546      8549      8550      8551      8550      8552      8550      8553
      8550      8554      8554      8555      8554      8556      8554      8557
      8557      8558      8557      8559      8557      8564      8564      8560
      8560      8563      8560      8561      8560      8562      8565      8566
      8565      8567      8565      8568      8565      8563      8568      8569
      8568      8576      8568      8570      8576      8577      8576      8578
      8576      8579      8570      8571      8571      8573      8571      8572
      8573      8574      8573      8575      8573      8585      8585      8586
      8585      8587      8585      8588      8588      8589      8588      8590
      8588      8591      8591      8592      8591      8593      8591      8594
      8594      8595      8594      8596      8594      8597      8597      8598
      8597      8599      8597      8600      8600      8601      8600      8602
      8600      8603      8603      8604      8603      8605      8605      8606
      8605      8607      8607      8608      8607      8609      8607      8610
      8610      8611      8610      8612      8610      8613      8613      8614
      8613      8615      8613      8616      8616      8617      8616      8618
      8616      8619      8619      8620      8619      8621      8619      8622
      8622      8623      8622      8624      8622      8625      8625      8626
      8625      8627      8625      8628      8628      8629      8628      8630
      8628      8631      8579      8580      8580      8582      8580      8581
      8582      8583      8582      8584      8582      8632      8632      8633
      8632      8634      8632      8635      8635      8636      8635      8637
      8635      8638      8638      8639      8638      8640      8638      8641
      8641      8642      8641      8643      8641      8644      8644      8645
      8644      8646      8644      8647      8647      8648      8647      8649
      8647      8650      8650      8651      8650      8652      8652      8653
      8652      8654      8654      8655      8654      8656      8654      8657
      8657      8658      8657      8659      8657      8660      8660      8661
      8660      8662      8660      8663      8663      8664      8663      8665
      8663      8666      8666      8667      8666      8668      8666      8669
      8669      8670      8669      8671      8669      8672      8672      8673
      8672      8674      8672      8675      8675      8676      8675      8677
      8675      8678      8679      8680      8679      8681      8679      8682
      8679      8683      8683      8684      8683      8685      8683      8686
      8686      8687      8686      8688      8686      8693      8693      8689
      8689      8692      8689      8690      8689      8691      8694      8695
      8694      8696      8694      8697      8694      8692      8697      8698
      8697      8705      8697      8699      8705      8706      8705      8707
      8705      8708      8699      8700      8700      8702      8700      8701
      8702      8703      8702      8704      8702      8714      8714      8715
      8714      8716      8714      8717      8717      8718      8717      8719
      8717      8720      8720      8721      8720      8722      8720      8723
      8723      8724      8723      8725      8723      8726      8726      8727
      8726      8728      8726      8729      8729      8730      8729      8731
      8729      8732      8732      8733      8732      8734      8734      8735
      8734      8736      8736      8737      8736      8738      8736      8739
      8739      8740      8739      8741      8739      8742      8742      8743
      8742      8744      8742      8745      8745      8746      8745      8747
      8745      8748      8748      8749      8748      8750      8748      8751
      8751      8752      8751      8753      8751      8754      8754      8755
      8754      8756      8754      8757      8757      8758      8757      8759
      8757      8760      8708      8709      8709      8711      8709      8710
      8711      8712      8711      8713      8711      8761      8761      8762
      8761      8763      8761      8764      8764      8765      8764      8766
      8764      8767      8767      8768      8767      8769      8767      8770
      8770      8771      8770      8772      8770      8773      8773      8774
      8773      8775      8773      8776      8776      8777      8776      8778
      8776      8779      8779      8780      8779      8781      8781      8782
      8781      8783      8783      8784      8783      8785      8783      8786
      8786      8787      8786      8788      8786      8789      8789      8790
      8789      8791      8789      8792      8792      8793      8792      8794
      8792      8795      8795      8796      8795      8797      8795      8798
      8798      8799      8798      8800      8798      8801      8801      8802
      8801      8803      8801      8804      8804      8805      8804      8806
      8804      8807      8808      8810      8808      8809      8810      8811
      8808      8854      8854      8855      8854      8856      8854      8851
      8851      8852      8851      8853      8808      8812      8812      8813
      8812      8814      8812      8815      8815      8846      8846      8851
      8846      8847      8847      8848      8847      8849      8847      8850
      8815      8816      8816      8817      8816      8818      8818      8819
      8818      8820      8818      8821      8821      8822      8821      8844
      8844      8845      8844      8846      8821      8823      8823      8824
      8823      8833      8833      8838      8838      8839      8838      8840
      8838      8841      8841      8842      8841      8843      8841      8844
      8833      8834      8834      8835      8834      8836      8834      8837
      8823      8825      8825      8826      8825      8827      8825      8828
      8828      8829      8828      8830      8828      8831      8831      8832
      8831      8833      8831      8857      8857      8858      8857      8859
      8859      8860      8859      8861      8859      8862      8857      8863
      8863      8864      8863      8865      8863      8866      8866      8867
      8866      8868      8866      8869      8869      8870      8869      8871
      8869      8872      8872      8873      8872      8874      8874      8875
      8874      8876      8874      8877      8872      8878      8878      8879
      8878      8880      8878      8881      8882      8883      8882      8884
      8882      8885      8882      8886      8886      8887      8886      8888
      8886      8889      8889      8890      8889      8891      8889      8896
      8896      8892      8892      8895      8892      8893      8892      8894
      8897      8898      8897      8899      8897      8900      8897      8895
      8900      8901      8900      8908      8900      8902      8908      8909
      8908      8910      8908      8911      8902      8903      8903      8905
      8903      8904      8905      8906      8905      8907      8905      8917
      8917      8918      8917      8919      8917      8920      8920      8921
      8920      8922      8920      8923      8923      8924      8923      8925
      8923      8926      8926      8927      8926      8928      8926      8929
      8929      8930      8929      8931      8929      8932      8932      8933
      8932      8934      8932      8935      8935      8936      8935      8937
      8937      8938      8937      8939      8939      8940      8939      8941
      8939      8942      8942      8943      8942      8944      8942      8945
      8945      8946      8945      8947      8945      8948      8948      8949
      8948      8950      8948      8951      8951      8952      8951      8953
      8951      8954      8954      8955      8954      8956      8954      8957
      8957      8958      8957      8959      8957      8960      8960      8961
      8960      8962      8960      8963      8911      8912      8912      8914
      8912      8913      8914      8915      8914      8916      8914      8964
      8964      8965      8964      8966      8964      8967      8967      8968
      8967      8969      8967      8970      8970      8971      8970      8972
      8970      8973      8973      8974      8973      8975      8973      8976
      8976      8977      8976      8978      8976      8979      8979      8980
      8979      8981      8979      8982      8982      8983      8982      8984
      8984      8985      8984      8986      8986      8987      8986      8988
      8986      8989      8989      8990      8989      8991      8989      8992
      8992      8993      8992      8994      8992      8995      8995      8996
      8995      8997      8995      8998      8998      8999      8998      9000
      8998      9001      9001      9002      9001      9003      9001      9004
      9004      9005      9004      9006      9004      9007      9007      9008
      9007      9009      9007      9010      9011      9013      9011      9012
      9013      9014      9011      9057      9057      9058      9057      9059
      9057      9054      9054      9055      9054      9056      9011      9015
      9015      9016      9015      9017      9015      9018      9018      9049
      9049      9054      9049      9050      9050      9051      9050      9052
      9050      9053      9018      9019      9019      9020      9019      9021
      9021      9022      9021      9023      9021      9024      9024      9025
      9024      9047      9047      9048      9047      9049      9024      9026
      9026      9027      9026      9036      9036      9041      9041      9042
      9041      9043      9041      9044      9044      9045      9044      9046
      9044      9047      9036      9037      9037      9038      9037      9039
      9037      9040      9026      9028      9028      9029      9028      9030
      9028      9031      9031      9032      9031      9033      9031      9034
      9034      9035      9034      9036      9034      9060      9060      9061
      9060      9062      9062      9063      9062      9064      9062      9065
      9060      9066      9066      9067      9066      9068      9066      9069
      9069      9070      9069      9071      9069      9072      9072      9073
      9072      9074      9072      9075      9075      9076      9075      9077
      9077      9078      9077      9079      9077      9080      9075      9081
      9081      9082      9081      9083      9081      9084      9085      9087
      9085      9086      9087      9088      9085      9131      9131      9132
      9131      9133      9131      9128      9128      9129      9128      9130
      9085      9089      9089      9090      9089      9091      9089      9092
      9092      9123      9123      9128      9123      9124      9124      9125
      9124      9126      9124      9127      9092      9093      9093      9094
      9093      9095      9095      9096      9095      9097      9095      9098
      9098      9099      9098      9121      9121      9122      9121      9123
      9098      9100      9100      9101      9100      9110      9110      9115
      9115      9116      9115      9117      9115      9118      9118      9119
      9118      9120      9118      9121      9110      9111      9111      9112
      9111      9113      9111      9114      9100      9102      9102      9103
      9102      9104      9102      9105      9105      9106      9105      9107
      9105      9108      9108      9109      9108      9110      9108      9134
      9134      9135      9134      9136      9136      9137      9136      9138
      9136      9139      9134      9140      9140      9141      9140      9142
      9140      9143      9143      9144      9143      9145      9143      9146
      9146      9147      9146      9148      9146      9149      9149      9150
      9149      9151      9151      9152      9151      9153      9151      9154
      9149      9155      9155      9156      9155      9157      9155      9158
      9159      9160      9159      9161      9159      9162      9159      9163
      9163      9164      9163      9165      9163      9166      9166      9167
      9166      9168      9166      9173      9173      9169      9169      9172
      9169      9170      9169      9171      9174      9175      9174      9176
      9174      9177      9174      9172      9177      9178      9177      9185
      9177      9179      9185      9186      9185      9187      9185      9188
      9179      9180      9180      9182      9180      9181      9182      9183
      9182      9184      9182      9194      9194      9195      9194      9196
      9194      9197      9197      9198      9197      9199      9197      9200
      9200      9201      9200      9202      9200      9203      9203      9204
      9203      9205      9203      9206      9206      9207      9206      9208
      9206      9209      9209      9210      9209      9211      9209      9212
      9212      9213      9212      9214      9214      9215      9214      9216
      9216      9217      9216      9218      9216      9219      9219      9220
      9219      9221      9219      9222      9222      9223      9222      9224
      9222      9225      9225      9226      9225      9227      9225      9228
      9228      9229      9228      9230      9228      9231      9231      9232
      9231      9233      9231      9234      9234      9235      9234      9236
      9234      9237      9237      9238      9237      9239      9237      9240
      9188      9189      9189      9191      9189      9190      9191      9192
      9191      9193      9191      9241      9241      9242      9241      9243
      9241      9244      9244      9245      9244      9246      9244      9247
      9247      9248      9247      9249      9247      9250      9250      9251
      9250      9252      9250      9253      9253      9254      9253      9255
      9253      9256      9256      9257      9256      9258      9256      9259
      9259      9260      9259      9261      9261      9262      9261      9263
      9263      9264      9263      9265      9263      9266      9266      9267
      9266      9268      9266      9269      9269      9270      9269      9271
      9269      9272      9272      9273      9272      9274      9272      9275
      9275      9276      9275      9277      9275      9278      9278      9279
      9278      9280      9278      9281      9281      9282      9281      9283
      9281      9284      9284      9285      9284      9286      9284      9287
      9288      9292      9288      9296      9288      9300      9292      9293
      9292      9294      9292      9295      9296      9297      9296      9298
      9296      9299      9300      9301      9300      9302      9300      9303
      9288      9289      9289      9290      9289      9291      9289      9304
      9304      9305      9304      9306      9304      9310      9311      9312
      9310      9307      9307      9311      9307      9308      9307      9309
      9312      9313      9312      9314      9312      9315      9315      9316
      9315      9323      9315      9317      9323      9324      9323      9325
      9323      9326      9317      9318      9318      9320      9318      9319
      9320      9321      9320      9322      9320      9332      9332      9333
      9332      9334      9332      9335      9335      9336      9335      9337
      9335      9338      9338      9339      9338      9340      9338      9341
      9341      9342      9341      9343      9341      9344      9344      9345
      9344      9346      9344      9347      9347      9348      9347      9349
      9347      9350      9350      9351      9350      9352      9352      9353
      9352      9354      9354      9355      9354      9356      9354      9357
      9357      9358      9357      9359      9357      9360      9360      9361
      9360      9362      9360      9363      9363      9364      9363      9365
      9363      9366      9366      9367      9366      9368      9366      9369
      9369      9370      9369      9371      9369      9372      9372      9373
      9372      9374      9372      9375      9375      9376      9375      9377
      9375      9378      9326      9327      9327      9329      9327      9328
      9329      9330      9329      9331      9329      9379      9379      9380
      9379      9381      9379      9382      9382      9383      9382      9384
      9382      9385      9385      9386      9385      9387      9385      9388
      9388      9389      9388      9390      9388      9391      9391      9392
      9391      9393      9391      9394      9394      9395      9394      9396
      9394      9397      9397      9398      9397      9399      9399      9400
      9399      9401      9401      9402      9401      9403      9401      9404
      9404      9405      9404      9406      9404      9407      9407      9408
      9407      9409      9407      9410      9410      9411      9410      9412
      9410      9413      9413      9414      9413      9415      9413      9416
      9416      9417      9416      9418      9416      9419      9419      9420
      9419      9421      9419      9422      9422      9423      9422      9424
      9422      9425      9426      9430      9426      9434      9426      9438
      9430      9431      9430      9432      9430      9433      9434      9435
      9434      9436      9434      9437      9438      9439      9438      9440
      9438      9441      9426      9427      9427      9428      9427      9429
      9427      9442      9442      9443      9442      9444      9442      9448
      9449      9450      9448      9445      9445      9449      9445      9446
      9445      9447      9450      9451      9450      9452      9450      9453
      9453      9454      9453      9461      9453      9455      9461      9462
      9461      9463      9461      9464      9455      9456      9456      9458
      9456      9457      9458      9459      9458      9460      9458      9470
      9470      9471      9470      9472      9470      9473      9473      9474
      9473      9475      9473      9476      9476      9477      9476      9478
      9476      9479      9479      9480      9479      9481      9479      9482
      9482      9483      9482      9484      9482      9485      9485      9486
      9485      9487      9485      9488      9488      9489      9488      9490
      9490      9491      9490      9492      9492      9493      9492      9494
      9492      9495      9495      9496      9495      9497      9495      9498
      9498      9499      9498      9500      9498      9501      9501      9502
      9501      9503      9501      9504      9504      9505      9504      9506
      9504      9507      9507      9508      9507      9509      9507      9510
      9510      9511      9510      9512      9510      9513      9513      9514
      9513      9515      9513      9516      9464      9465      9465      9467
      9465      9466      9467      9468      9467      9469      9467      9517
      9517      9518      9517      9519      9517      9520      9520      9521
      9520      9522      9520      9523      9523      9524      9523      9525
      9523      9526      9526      9527      9526      9528      9526      9529
      9529      9530      9529      9531      9529      9532      9532      9533
      9532      9534      9532      9535      9535      9536      9535      9537
      9537      9538      9537      9539      9539      9540      9539      9541
      9539      9542      9542      9543      9542      9544      9542      9545
      9545      9546      9545      9547      9545      9548      9548      9549
      9548      9550      9548      9551      9551      9552      9551      9553
      9551      9554      9554      9555      9554      9556      9554      9557
      9557      9558      9557      9559      9557      9560      9560      9561
      9560      9562      9560      9563      9564      9565      9564      9566
      9564      9567      9564      9568      9568      9569      9568      9570
      9568      9571      9571      9572      9571      9573      9571      9578
      9578      9574      9574      9577      9574      9575      9574      9576
      9579      9580      9579      9581      9579      9582      9579      9577
      9582      9583      9582      9590      9582      9584      9590      9591
      9590      9592      9590      9593      9584      9585      9585      9587
      9585      9586      9587      9588      9587      9589      9587      9599
      9599      9600      9599      9601      9599      9602      9602      9603
      9602      9604      9602      9605      9605      9606      9605      9607
      9605      9608      9608      9609      9608      9610      9608      9611
      9611      9612      9611      9613      9611      9614      9614      9615
      9614      9616      9614      9617      9617      9618      9617      9619
      9619      9620      9619      9621      9621      9622      9621      9623
      9621      9624      9624      9625      9624      9626      9624      9627
      9627      9628      9627      9629      9627      9630      9630      9631
      9630      9632      9630      9633      9633      9634      9633      9635
      9633      9636      9636      9637      9636      9638      9636      9639
      9639      9640      9639      9641      9639      9642      9642      9643
      9642      9644      9642      9645      9593      9594      9594      9596
      9594      9595      9596      9597      9596      9598      9596      9646
      9646      9647      9646      9648      9646      9649      9649      9650
      9649      9651      9649      9652      9652      9653      9652      9654
      9652      9655      9655      9656      9655      9657      9655      9658
      9658      9659      9658      9660      9658      9661      9661      9662
      9661      9663      9661      9664      9664      9665      9664      9666
      9666      9667      9666      9668      9668      9669      9668      9670
      9668      9671      9671      9672      9671      9673      9671      9674
      9674      9675      9674      9676      9674      9677      9677      9678
      9677      9679      9677      9680      9680      9681      9680      9682
      9680      9683      9683      9684      9683      9685      9683      9686
      9686      9687      9686      9688      9686      9689      9689      9690
      9689      9691      9689      9692      9693      9694      9693      9695
      9693      9696      9693      9697      9697      9698      9697      9699
      9697      9700      9700      9701      9700      9702      9700      9707
      9707      9703      9703      9706      9703      9704      9703      9705
      9708      9709      9708      9710      9708      9711      9708      9706
      9711      9712      9711      9719      9711      9713      9719      9720
      9719      9721      9719      9722      9713      9714      9714      9716
      9714      9715      9716      9717      9716      9718      9716      9728
      9728      9729      9728      9730      9728      9731      9731      9732
      9731      9733      9731      9734      9734      9735      9734      9736
      9734      9737      9737      9738      9737      9739      9737      9740
      9740      9741      9740      9742      9740      9743      9743      9744
      9743      9745      9743      9746      9746      9747      9746      9748
      9748      9749      9748      9750      9750      9751      9750      9752
      9750      9753      9753      9754      9753      9755      9753      9756
      9756      9757      9756      9758      9756      9759      9759      9760
      9759      9761      9759      9762      9762      9763      9762      9764
      9762      9765      9765      9766      9765      9767      9765      9768
      9768      9769      9768      9770      9768      9771      9771      9772
      9771      9773      9771      9774      9722      9723      9723      9725
      9723      9724      9725      9726      9725      9727      9725      9775
      9775      9776      9775      9777      9775      9778      9778      9779
      9778      9780      9778      9781      9781      9782      9781      9783
      9781      9784      9784      9785      9784      9786      9784      9787
      9787      9788      9787      9789      9787      9790      9790      9791
      9790      9792      9790      9793      9793      9794      9793      9795
      9795      9796      9795      9797      9797      9798      9797      9799
      9797      9800      9800      9801      9800      9802      9800      9803
      9803      9804      9803      9805      9803      9806      9806      9807
      9806      9808      9806      9809      9809      9810      9809      9811
      9809      9812      9812      9813      9812      9814      9812      9815
      9815      9816      9815      9817      9815      9818      9818      9819
      9818      9820      9818      9821      9897      9898      9897      9899
      9897      9900      9897      9894      9894      9895      9894      9896
      9894      9891      9891      9892      9891      9893      9891      9888
      9888      9889      9888      9890      9888      9885      9885      9886
      9885      9887      9885      9882      9882      9883      9882      9884
      9882      9879      9879      9880      9879      9881      9879      9876
      9876      9877      9876      9878      9876      9873      9873      9874
      9873      9875      9873      9870      9870      9871      9870      9872
      9870      9867      9867      9868      9867      9869      9867      9864
      9864      9865      9864      9866      9864      9861      9861      9862
      9861      9863      9861      9859      9859      9860      9857      9858
      9857      9853      9853      9854      9853      9855      9855      9856
      9853      9851      9851      9852      9851      9846      9846      9847
      9846      9848      9846      9844      9844      9841      9845      9841
      9842      9841      9843      9841      9845      9838      9838      9839
      9838      9840      9838      9835      9835      9836      9835      9837
      9835      9822      9822      9831      9822      9827      9822      9823
      9831      9832      9831      9833      9831      9834      9827      9828
      9827      9829      9827      9830      9823      9824      9823      9825
      9823      9826      9851      9849      9849      9850      9849      9901
      9901      9903      9903      9904      9903      9905      9903      9906
      9906      9907      9906      9908      9906      9909      9909      9910
      9909      9911      9909      9912      9912      9913      9912      9914
      9912      9915      9915      9916      9915      9917      9915      9918
      9918      9919      9918      9920      9918      9921      9921      9922
      9921      9923      9921      9924      9924      9925      9924      9926
      9924      9927      9927      9928      9927      9929      9927      9930
      9930      9931      9930      9932      9930      9933      9933      9934
      9933      9935      9933      9936      9936      9937      9936      9938
      9936      9939      9939      9940      9939      9941      9939      9942
      9942      9943      9942      9944      9942      9945      9945      9946
      9945      9947      9945      9948      9948      9949      9948      9950
      9948      9951      9951      9952      9951      9953      9951      9954
      9954      9955      9954      9956      9954      9957      9957      9958
      9957      9959      9957      9960      9960      9961      9960      9962
      9960      9963      9963      9964      9963      9965      9963      9966
      9966      9967      9966      9968      9966      9969      9857      9859
      9901      9902      9970      9972      9970      9971      9972      9973
      9970     10016     10016     10017     10016     10018     10016     10013
     10013     10014     10013     10015      9970      9974      9974      9975
      9974      9976      9974      9977      9977     10008     10008     10013
     10008     10009     10009     10010     10009     10011     10009     10012
      9977      9978      9978      9979      9978      9980      9980      9981
      9980      9982      9980      9983      9983      9984      9983     10006
     10006     10007     10006     10008      9983      9985      9985      9986
      9985      9995      9995     10000     10000     10001     10000     10002
     10000     10003     10003     10004     10003     10005     10003     10006
      9995      9996      9996      9997      9996      9998      9996      9999
      9985      9987      9987      9988      9987      9989      9987      9990
      9990      9991      9990      9992      9990      9993      9993      9994
      9993      9995      9993     10019     10019     10020     10019     10021
     10021     10022     10021     10023     10021     10024     10019     10025
     10025     10026     10025     10027     10025     10028     10028     10029
     10028     10030     10028     10031     10031     10032     10031     10033
     10031     10034     10034     10035     10034     10036     10036     10037
     10036     10038     10036     10039     10034     10040     10040     10041
     10040     10042     10040     10043     10044     10045     10044     10046
     10044     10047     10044     10048     10048     10049     10048     10050
     10048     10051     10051     10052     10051     10053     10051     10058
     10058     10054     10054     10057     10054     10055     10054     10056
     10059     10060     10059     10061     10059     10062     10059     10057
     10062     10063     10062     10070     10062     10064     10070     10071
     10070     10072     10070     10073     10064     10065     10065     10067
     10065     10066     10067     10068     10067     10069     10067     10079
     10079     10080     10079     10081     10079     10082     10082     10083
     10082     10084     10082     10085     10085     10086     10085     10087
     10085     10088     10088     10089     10088     10090     10088     10091
     10091     10092     10091     10093     10091     10094     10094     10095
     10094     10096     10094     10097     10097     10098     10097     10099
     10099     10100     10099     10101     10101     10102     10101     10103
     10101     10104     10104     10105     10104     10106     10104     10107
     10107     10108     10107     10109     10107     10110     10110     10111
     10110     10112     10110     10113     10113     10114     10113     10115
     10113     10116     10116     10117     10116     10118     10116     10119
     10119     10120     10119     10121     10119     10122     10122     10123
     10122     10124     10122     10125     10073     10074     10074     10076
     10074     10075     10076     10077     10076     10078     10076     10126
     10126     10127     10126     10128     10126     10129     10129     10130
     10129     10131     10129     10132     10132     10133     10132     10134
     10132     10135     10135     10136     10135     10137     10135     10138
     10138     10139     10138     10140     10138     10141     10141     10142
     10141     10143     10141     10144     10144     10145     10144     10146
     10146     10147     10146     10148     10148     10149     10148     10150
     10148     10151     10151     10152     10151     10153     10151     10154
     10154     10155     10154     10156     10154     10157     10157     10158
     10157     10159     10157     10160     10160     10161     10160     10162
     10160     10163     10163     10164     10163     10165     10163     10166
     10166     10167     10166     10168     10166     10169     10169     10170
     10169     10171     10169     10172     10173     10177     10173     10181
     10173     10185     10177     10178     10177     10179     10177     10180
     10181     10182     10181     10183     10181     10184     10185     10186
     10185     10187     10185     10188     10173     10174     10174     10175
     10174     10176     10174     10189     10189     10190     10189     10191
     10189     10195     10196     10197     10195     10192     10192     10196
     10192     10193     10192     10194     10197     10198     10197     10199
     10197     10200     10200     10201     10200     10208     10200     10202
     10208     10209     10208     10210     10208     10211     10202     10203
     10203     10205     10203     10204     10205     10206     10205     10207
     10205     10217     10217     10218     10217     10219     10217     10220
     10220     10221     10220     10222     10220     10223     10223     10224
     10223     10225     10223     10226     10226     10227     10226     10228
     10226     10229     10229     10230     10229     10231     10229     10232
     10232     10233     10232     10234     10232     10235     10235     10236
     10235     10237     10237     10238     10237     10239     10239     10240
     10239     10241     10239     10242     10242     10243     10242     10244
     10242     10245     10245     10246     10245     10247     10245     10248
     10248     10249     10248     10250     10248     10251     10251     10252
     10251     10253     10251     10254     10254     10255     10254     10256
     10254     10257     10257     10258     10257     10259     10257     10260
     10260     10261     10260     10262     10260     10263     10211     10212
     10212     10214     10212     10213     10214     10215     10214     10216
     10214     10264     10264     10265     10264     10266     10264     10267
     10267     10268     10267     10269     10267     10270     10270     10271
     10270     10272     10270     10273     10273     10274     10273     10275
     10273     10276     10276     10277     10276     10278     10276     10279
     10279     10280     10279     10281     10279     10282     10282     10283
     10282     10284     10284     10285     10284     10286     10286     10287
     10286     10288     10286     10289     10289     10290     10289     10291
     10289     10292     10292     10293     10292     10294     10292     10295
     10295     10296     10295     10297     10295     10298     10298     10299
     10298     10300     10298     10301     10301     10302     10301     10303
     10301     10304     10304     10305     10304     10306     10304     10307
     10307     10308     10307     10309     10307     10310     10386     10387
     10386     10388     10386     10389     10386     10383     10383     10384
     10383     10385     10383     10380     10380     10381     10380     10382
     10380     10377     10377     10378     10377     10379     10377     10374
     10374     10375     10374     10376     10374     10371     10371     10372
     10371     10373     10371     10368     10368     10369     10368     10370
     10368     10365     10365     10366     10365     10367     10365     10362
     10362     10363     10362     10364     10362     10359     10359     10360
     10359     10361     10359     10356     10356     10357     10356     10358
     10356     10353     10353     10354     10353     10355     10353     10350
     10350     10351     10350     10352     10350     10348     10348     10349
     10346     10347     10346     10342     10342     10343     10342     10344
     10344     10345     10342     10340     10340     10341     10340     10335
     10335     10336     10335     10337     10335     10333     10333     10330
     10334     10330     10331     10330     10332     10330     10334     10327
     10327     10328     10327     10329     10327     10324     10324     10325
     10324     10326     10324     10311     10311     10320     10311     10316
     10311     10312     10320     10321     10320     10322     10320     10323
     10316     10317     10316     10318     10316     10319     10312     10313
     10312     10314     10312     10315     10340     10338     10338     10339
     10338     10390     10390     10392     10392     10393     10392     10394
     10392     10395     10395     10396     10395     10397     10395     10398
     10398     10399     10398     10400     10398     10401     10401     10402
     10401     10403     10401     10404     10404     10405     10404     10406
     10404     10407     10407     10408     10407     10409     10407     10410
     10410     10411     10410     10412     10410     10413     10413     10414
     10413     10415     10413     10416     10416     10417     10416     10418
     10416     10419     10419     10420     10419     10421     10419     10422
     10422     10423     10422     10424     10422     10425     10425     10426
     10425     10427     10425     10428     10428     10429     10428     10430
     10428     10431     10431     10432     10431     10433     10431     10434
     10434     10435     10434     10436     10434     10437     10437     10438
     10437     10439     10437     10440     10440     10441     10440     10442
     10440     10443     10443     10444     10443     10445     10443     10446
     10446     10447     10446     10448     10446     10449     10449     10450
     10449     10451     10449     10452     10452     10453     10452     10454
     10452     10455     10455     10456     10455     10457     10455     10458
     10346     10348     10390     10391     10459     10463     10459     10467
     10459     10471     10463     10464     10463     10465     10463     10466
     10467     10468     10467     10469     10467     10470     10471     10472
     10471     10473     10471     10474     10459     10460     10460     10461
     10460     10462     10460     10475     10475     10476     10475     10477
     10475     10481     10482     10483     10481     10478     10478     10482
     10478     10479     10478     10480     10483     10484     10483     10485
     10483     10486     10486     10487     10486     10494     10486     10488
     10494     10495     10494     10496     10494     10497     10488     10489
     10489     10491     10489     10490     10491     10492     10491     10493
     10491     10503     10503     10504     10503     10505     10503     10506
     10506     10507     10506     10508     10506     10509     10509     10510
     10509     10511     10509     10512     10512     10513     10512     10514
     10512     10515     10515     10516     10515     10517     10515     10518
     10518     10519     10518     10520     10518     10521     10521     10522
     10521     10523     10523     10524     10523     10525     10525     10526
     10525     10527     10525     10528     10528     10529     10528     10530
     10528     10531     10531     10532     10531     10533     10531     10534
     10534     10535     10534     10536     10534     10537     10537     10538
     10537     10539     10537     10540     10540     10541     10540     10542
     10540     10543     10543     10544     10543     10545     10543     10546
     10546     10547     10546     10548     10546     10549     10497     10498
     10498     10500     10498     10499     10500     10501     10500     10502
     10500     10550     10550     10551     10550     10552     10550     10553
     10553     10554     10553     10555     10553     10556     10556     10557
     10556     10558     10556     10559     10559     10560     10559     10561
     10559     10562     10562     10563     10562     10564     10562     10565
     10565     10566     10565     10567     10565     10568     10568     10569
     10568     10570     10570     10571     10570     10572     10572     10573
     10572     10574     10572     10575     10575     10576     10575     10577
     10575     10578     10578     10579     10578     10580     10578     10581
     10581     10582     10581     10583     10581     10584     10584     10585
     10584     10586     10584     10587     10587     10588     10587     10589
     10587     10590     10590     10591     10590     10592     10590     10593
     10593     10594     10593     10595     10593     10596     10597     10601
     10597     10605     10597     10609     10601     10602     10601     10603
     10601     10604     10605     10606     10605     10607     10605     10608
     10609     10610     10609     10611     10609     10612     10597     10598
     10598     10599     10598     10600     10598     10613     10613     10614
     10613     10615     10613     10619     10620     10621     10619     10616
     10616     10620     10616     10617     10616     10618     10621     10622
     10621     10623     10621     10624     10624     10625     10624     10632
     10624     10626     10632     10633     10632     10634     10632     10635
     10626     10627     10627     10629     10627     10628     10629     10630
     10629     10631     10629     10641     10641     10642     10641     10643
     10641     10644     10644     10645     10644     10646     10644     10647
     10647     10648     10647     10649     10647     10650     10650     10651
     10650     10652     10650     10653     10653     10654     10653     10655
     10653     10656     10656     10657     10656     10658     10656     10659
     10659     10660     10659     10661     10661     10662     10661     10663
     10663     10664     10663     10665     10663     10666     10666     10667
     10666     10668     10666     10669     10669     10670     10669     10671
     10669     10672     10672     10673     10672     10674     10672     10675
     10675     10676     10675     10677     10675     10678     10678     10679
     10678     10680     10678     10681     10681     10682     10681     10683
     10681     10684     10684     10685     10684     10686     10684     10687
     10635     10636     10636     10638     10636     10637     10638     10639
     10638     10640     10638     10688     10688     10689     10688     10690
     10688     10691     10691     10692     10691     10693     10691     10694
     10694     10695     10694     10696     10694     10697     10697     10698
     10697     10699     10697     10700     10700     10701     10700     10702
     10700     10703     10703     10704     10703     10705     10703     10706
     10706     10707     10706     10708     10708     10709     10708     10710
     10710     10711     10710     10712     10710     10713     10713     10714
     10713     10715     10713     10716     10716     10717     10716     10718
     10716     10719     10719     10720     10719     10721     10719     10722
     10722     10723     10722     10724     10722     10725     10725     10726
     10725     10727     10725     10728     10728     10729     10728     10730
     10728     10731     10731     10732     10731     10733     10731     10734
     10735     10736     10735     10737     10735     10738     10735     10739
     10739     10740     10739     10741     10739     10742     10742     10743
     10742     10744     10742     10749     10749     10745     10745     10748
     10745     10746     10745     10747     10750     10751     10750     10752
     10750     10753     10750     10748     10753     10754     10753     10761
     10753     10755     10761     10762     10761     10763     10761     10764
     10755     10756     10756     10758     10756     10757     10758     10759
     10758     10760     10758     10770     10770     10771     10770     10772
     10770     10773     10773     10774     10773     10775     10773     10776
     10776     10777     10776     10778     10776     10779     10779     10780
     10779     10781     10779     10782     10782     10783     10782     10784
     10782     10785     10785     10786     10785     10787     10785     10788
     10788     10789     10788     10790     10790     10791     10790     10792
     10792     10793     10792     10794     10792     10795     10795     10796
     10795     10797     10795     10798     10798     10799     10798     10800
     10798     10801     10801     10802     10801     10803     10801     10804
     10804     10805     10804     10806     10804     10807     10807     10808
     10807     10809     10807     10810     10810     10811     10810     10812
     10810     10813     10813     10814     10813     10815     10813     10816
     10764     10765     10765     10767     10765     10766     10767     10768
     10767     10769     10767     10817     10817     10818     10817     10819
     10817     10820     10820     10821     10820     10822     10820     10823
     10823     10824     10823     10825     10823     10826     10826     10827
     10826     10828     10826     10829     10829     10830     10829     10831
     10829     10832     10832     10833     10832     10834     10832     10835
     10835     10836     10835     10837     10837     10838     10837     10839
     10839     10840     10839     10841     10839     10842     10842     10843
     10842     10844     10842     10845     10845     10846     10845     10847
     10845     10848     10848     10849     10848     10850     10848     10851
     10851     10852     10851     10853     10851     10854     10854     10855
     10854     10856     10854     10857     10857     10858     10857     10859
     10857     10860     10860     10861     10860     10862     10860     10863
     10939     10940     10939     10941     10939     10942     10939     10936
     10936     10937     10936     10938     10936     10933     10933     10934
     10933     10935     10933     10930     10930     10931     10930     10932
     10930     10927     10927     10928     10927     10929     10927     10924
     10924     10925     10924     10926     10924     10921     10921     10922
     10921     10923     10921     10918     10918     10919     10918     10920
     10918     10915     10915     10916     10915     10917     10915     10912
     10912     10913     10912     10914     10912     10909     10909     10910
     10909     10911     10909     10906     10906     10907     10906     10908
     10906     10903     10903     10904     10903     10905     10903     10901
     10901     10902     10899     10900     10899     10895     10895     10896
     10895     10897     10897     10898     10895     10893     10893     10894
     10893     10888     10888     10889     10888     10890     10888     10886
     10886     10883     10887     10883     10884     10883     10885     10883
     10887     10880     10880     10881     10880     10882     10880     10877
     10877     10878     10877     10879     10877     10864     10864     10873
     10864     10869     10864     10865     10873     10874     10873     10875
     10873     10876     10869     10870     10869     10871     10869     10872
     10865     10866     10865     10867     10865     10868     10893     10891
     10891     10892     10891     10943     10943     10945     10945     10946
     10945     10947     10945     10948     10948     10949     10948     10950
     10948     10951     10951     10952     10951     10953     10951     10954
     10954     10955     10954     10956     10954     10957     10957     10958
     10957     10959     10957     10960     10960     10961     10960     10962
     10960     10963     10963     10964     10963     10965     10963     10966
     10966     10967     10966     10968     10966     10969     10969     10970
     10969     10971     10969     10972     10972     10973     10972     10974
     10972     10975     10975     10976     10975     10977     10975     10978
     10978     10979     10978     10980     10978     10981     10981     10982
     10981     10983     10981     10984     10984     10985     10984     10986
     10984     10987     10987     10988     10987     10989     10987     10990
     10990     10991     10990     10992     10990     10993     10993     10994
     10993     10995     10993     10996     10996     10997     10996     10998
     10996     10999     10999     11000     10999     11001     10999     11002
     11002     11003     11002     11004     11002     11005     11005     11006
     11005     11007     11005     11008     11008     11009     11008     11010
     11008     11011     10899     10901     10943     10944     11012     11014
     11012     11013     11014     11015     11012     11058     11058     11059
     11058     11060     11058     11055     11055     11056     11055     11057
     11012     11016     11016     11017     11016     11018     11016     11019
     11019     11050     11050     11055     11050     11051     11051     11052
     11051     11053     11051     11054     11019     11020     11020     11021
     11020     11022     11022     11023     11022     11024     11022     11025
     11025     11026     11025     11048     11048     11049     11048     11050
     11025     11027     11027     11028     11027     11037     11037     11042
     11042     11043     11042     11044     11042     11045     11045     11046
     11045     11047     11045     11048     11037     11038     11038     11039
     11038     11040     11038     11041     11027     11029     11029     11030
     11029     11031     11029     11032     11032     11033     11032     11034
     11032     11035     11035     11036     11035     11037     11035     11061
     11061     11062     11061     11063     11063     11064     11063     11065
     11063     11066     11061     11067     11067     11068     11067     11069
     11067     11070     11070     11071     11070     11072     11070     11073
     11073     11074     11073     11075     11073     11076     11076     11077
     11076     11078     11078     11079     11078     11080     11078     11081
     11076     11082     11082     11083     11082     11084     11082     11085
     11086     11090     11086     11094     11086     11098     11090     11091
     11090     11092     11090     11093     11094     11095     11094     11096
     11094     11097     11098     11099     11098     11100     11098     11101
     11086     11087     11087     11088     11087     11089     11087     11102
     11102     11103     11102     11104     11102     11108     11109     11110
     11108     11105     11105     11109     11105     11106     11105     11107
     11110     11111     11110     11112     11110     11113     11113     11114
     11113     11121     11113     11115     11121     11122     11121     11123
     11121     11124     11115     11116     11116     11118     11116     11117
     11118     11119     11118     11120     11118     11130     11130     11131
     11130     11132     11130     11133     11133     11134     11133     11135
     11133     11136     11136     11137     11136     11138     11136     11139
     11139     11140     11139     11141     11139     11142     11142     11143
     11142     11144     11142     11145     11145     11146     11145     11147
     11145     11148     11148     11149     11148     11150     11150     11151
     11150     11152     11152     11153     11152     11154     11152     11155
     11155     11156     11155     11157     11155     11158     11158     11159
     11158     11160     11158     11161     11161     11162     11161     11163
     11161     11164     11164     11165     11164     11166     11164     11167
     11167     11168     11167     11169     11167     11170     11170     11171
     11170     11172     11170     11173     11173     11174     11173     11175
     11173     11176     11124     11125     11125     11127     11125     11126
     11127     11128     11127     11129     11127     11177     11177     11178
     11177     11179     11177     11180     11180     11181     11180     11182
     11180     11183     11183     11184     11183     11185     11183     11186
     11186     11187     11186     11188     11186     11189     11189     11190
     11189     11191     11189     11192     11192     11193     11192     11194
     11192     11195     11195     11196     11195     11197     11197     11198
     11197     11199     11199     11200     11199     11201     11199     11202
     11202     11203     11202     11204     11202     11205     11205     11206
     11205     11207     11205     11208     11208     11209     11208     11210
     11208     11211     11211     11212     11211     11213     11211     11214
     11214     11215     11214     11216     11214     11217     11217     11218
     11217     11219     11217     11220     11220     11221     11220     11222
     11220     11223     11224     11225     11224     11226     11224     11227
     11224     11228     11228     11229     11228     11230     11228     11231
     11231     11232     11231     11233     11231     11238     11238     11234
     11234     11237     11234     11235     11234     11236     11239     11240
     11239     11241     11239     11242     11239     11237     11242     11243
     11242     11250     11242     11244     11250     11251     11250     11252
     11250     11253     11244     11245     11245     11247     11245     11246
     11247     11248     11247     11249     11247     11259     11259     11260
     11259     11261     11259     11262     11262     11263     11262     11264
     11262     11265     11265     11266     11265     11267     11265     11268
     11268     11269     11268     11270     11268     11271     11271     11272
     11271     11273     11271     11274     11274     11275     11274     11276
     11274     11277     11277     11278     11277     11279     11279     11280
     11279     11281     11281     11282     11281     11283     11281     11284
     11284     11285     11284     11286     11284     11287     11287     11288
     11287     11289     11287     11290     11290     11291     11290     11292
     11290     11293     11293     11294     11293     11295     11293     11296
     11296     11297     11296     11298     11296     11299     11299     11300
     11299     11301     11299     11302     11302     11303     11302     11304
     11302     11305     11253     11254     11254     11256     11254     11255
     11256     11257     11256     11258     11256     11306     11306     11307
     11306     11308     11306     11309     11309     11310     11309     11311
     11309     11312     11312     11313     11312     11314     11312     11315
     11315     11316     11315     11317     11315     11318     11318     11319
     11318     11320     11318     11321     11321     11322     11321     11323
     11321     11324     11324     11325     11324     11326     11326     11327
     11326     11328     11328     11329     11328     11330     11328     11331
     11331     11332     11331     11333     11331     11334     11334     11335
     11334     11336     11334     11337     11337     11338     11337     11339
     11337     11340     11340     11341     11340     11342     11340     11343
     11343     11344     11343     11345     11343     11346     11346     11347
     11346     11348     11346     11349     11349     11350     11349     11351
     11349     11352     11353     11354     11353     11355     11353     11356
     11353     11357     11357     11358     11357     11359     11357     11360
     11360     11361     11360     11362     11360     11367     11367     11363
     11363     11366     11363     11364     11363     11365     11368     11369
     11368     11370     11368     11371     11368     11366     11371     11372
     11371     11379     11371     11373     11379     11380     11379     11381
     11379     11382     11373     11374     11374     11376     11374     11375
     11376     11377     11376     11378     11376     11388     11388     11389
     11388     11390     11388     11391     11391     11392     11391     11393
     11391     11394     11394     11395     11394     11396     11394     11397
     11397     11398     11397     11399     11397     11400     11400     11401
     11400     11402     11400     11403     11403     11404     11403     11405
     11403     11406     11406     11407     11406     11408     11408     11409
     11408     11410     11410     11411     11410     11412     11410     11413
     11413     11414     11413     11415     11413     11416     11416     11417
     11416     11418     11416     11419     11419     11420     11419     11421
     11419     11422     11422     11423     11422     11424     11422     11425
     11425     11426     11425     11427     11425     11428     11428     11429
     11428     11430     11428     11431     11431     11432     11431     11433
     11431     11434     11382     11383     11383     11385     11383     11384
     11385     11386     11385     11387     11385     11435     11435     11436
     11435     11437     11435     11438     11438     11439     11438     11440
     11438     11441     11441     11442     11441     11443     11441     11444
     11444     11445     11444     11446     11444     11447     11447     11448
     11447     11449     11447     11450     11450     11451     11450     11452
     11450     11453     11453     11454     11453     11455     11455     11456
     11455     11457     11457     11458     11457     11459     11457     11460
     11460     11461     11460     11462     11460     11463     11463     11464
     11463     11465     11463     11466     11466     11467     11466     11468
     11466     11469     11469     11470     11469     11471     11469     11472
     11472     11473     11472     11474     11472     11475     11475     11476
     11475     11477     11475     11478     11478     11479     11478     11480
     11478     11481     11482     11486     11482     11490     11482     11494
     11486     11487     11486     11488     11486     11489     11490     11491
     11490     11492     11490     11493     11494     11495     11494     11496
     11494     11497     11482     11483     11483     11484     11483     11485
     11483     11498     11498     11499     11498     11500     11498     11504
     11505     11506     11504     11501     11501     11505     11501     11502
     11501     11503     11506     11507     11506     11508     11506     11509
     11509     11510     11509     11517     11509     11511     11517     11518
     11517     11519     11517     11520     11511     11512     11512     11514
     11512     11513     11514     11515     11514     11516     11514     11526
     11526     11527     11526     11528     11526     11529     11529     11530
     11529     11531     11529     11532     11532     11533     11532     11534
     11532     11535     11535     11536     11535     11537     11535     11538
     11538     11539     11538     11540     11538     11541     11541     11542
     11541     11543     11541     11544     11544     11545     11544     11546
     11546     11547     11546     11548     11548     11549     11548     11550
     11548     11551     11551     11552     11551     11553     11551     11554
     11554     11555     11554     11556     11554     11557     11557     11558
     11557     11559     11557     11560     11560     11561     11560     11562
     11560     11563     11563     11564     11563     11565     11563     11566
     11566     11567     11566     11568     11566     11569     11569     11570
     11569     11571     11569     11572     11520     11521     11521     11523
     11521     11522     11523     11524     11523     11525     11523     11573
     11573     11574     11573     11575     11573     11576     11576     11577
     11576     11578     11576     11579     11579     11580     11579     11581
     11579     11582     11582     11583     11582     11584     11582     11585
     11585     11586     11585     11587     11585     11588     11588     11589
     11588     11590     11588     11591     11591     11592     11591     11593
     11593     11594     11593     11595     11595     11596     11595     11597
     11595     11598     11598     11599     11598     11600     11598     11601
     11601     11602     11601     11603     11601     11604     11604     11605
     11604     11606     11604     11607     11607     11608     11607     11609
     11607     11610     11610     11611     11610     11612     11610     11613
     11613     11614     11613     11615     11613     11616     11616     11617
     11616     11618     11616     11619     11620     11622     11620     11621
     11622     11623     11620     11666     11666     11667     11666     11668
     11666     11663     11663     11664     11663     11665     11620     11624
     11624     11625     11624     11626     11624     11627     11627     11658
     11658     11663     11658     11659     11659     11660     11659     11661
     11659     11662     11627     11628     11628     11629     11628     11630
     11630     11631     11630     11632     11630     11633     11633     11634
     11633     11656     11656     11657     11656     11658     11633     11635
     11635     11636     11635     11645     11645     11650     11650     11651
     11650     11652     11650     11653     11653     11654     11653     11655
     11653     11656     11645     11646     11646     11647     11646     11648
     11646     11649     11635     11637     11637     11638     11637     11639
     11637     11640     11640     11641     11640     11642     11640     11643
     11643     11644     11643     11645     11643     11669     11669     11670
     11669     11671     11671     11672     11671     11673     11671     11674
     11669     11675     11675     11676     11675     11677     11675     11678
     11678     11679     11678     11680     11678     11681     11681     11682
     11681     11683     11681     11684     11684     11685     11684     11686
     11686     11687     11686     11688     11686     11689     11684     11690
     11690     11691     11690     11692     11690     11693     11769     11770
     11769     11771     11769     11772     11769     11766     11766     11767
     11766     11768     11766     11763     11763     11764     11763     11765
     11763     11760     11760     11761     11760     11762     11760     11757
     11757     11758     11757     11759     11757     11754     11754     11755
     11754     11756     11754     11751     11751     11752     11751     11753
     11751     11748     11748     11749     11748     11750     11748     11745
     11745     11746     11745     11747     11745     11742     11742     11743
     11742     11744     11742     11739     11739     11740     11739     11741
     11739     11736     11736     11737     11736     11738     11736     11733
     11733     11734     11733     11735     11733     11731     11731     11732
     11729     11730     11729     11725     11725     11726     11725     11727
     11727     11728     11725     11723     11723     11724     11723     11718
     11718     11719     11718     11720     11718     11716     11716     11713
     11717     11713     11714     11713     11715     11713     11717     11710
     11710     11711     11710     11712     11710     11707     11707     11708
     11707     11709     11707     11694     11694     11703     11694     11699
     11694     11695     11703     11704     11703     11705     11703     11706
     11699     11700     11699     11701     11699     11702     11695     11696
     11695     11697     11695     11698     11723     11721     11721     11722
     11721     11773     11773     11775     11775     11776     11775     11777
     11775     11778     11778     11779     11778     11780     11778     11781
     11781     11782     11781     11783     11781     11784     11784     11785
     11784     11786     11784     11787     11787     11788     11787     11789
     11787     11790     11790     11791     11790     11792     11790     11793
     11793     11794     11793     11795     11793     11796     11796     11797
     11796     11798     11796     11799     11799     11800     11799     11801
     11799     11802     11802     11803     11802     11804     11802     11805
     11805     11806     11805     11807     11805     11808     11808     11809
     11808     11810     11808     11811     11811     11812     11811     11813
     11811     11814     11814     11815     11814     11816     11814     11817
     11817     11818     11817     11819     11817     11820     11820     11821
     11820     11822     11820     11823     11823     11824     11823     11825
     11823     11826     11826     11827     11826     11828     11826     11829
     11829     11830     11829     11831     11829     11832     11832     11833
     11832     11834     11832     11835     11835     11836     11835     11837
     11835     11838     11838     11839     11838     11840     11838     11841
     11729     11731     11773     11774     11842     11843     11842     11844
     11842     11845     11842     11846     11846     11847     11846     11848
     11846     11849     11849     11850     11849     11851     11849     11856
     11856     11852     11852     11855     11852     11853     11852     11854
     11857     11858     11857     11859     11857     11860     11857     11855
     11860     11861     11860     11868     11860     11862     11868     11869
     11868     11870     11868     11871     11862     11863     11863     11865
     11863     11864     11865     11866     11865     11867     11865     11877
     11877     11878     11877     11879     11877     11880     11880     11881
     11880     11882     11880     11883     11883     11884     11883     11885
     11883     11886     11886     11887     11886     11888     11886     11889
     11889     11890     11889     11891     11889     11892     11892     11893
     11892     11894     11892     11895     11895     11896     11895     11897
     11897     11898     11897     11899     11899     11900     11899     11901
     11899     11902     11902     11903     11902     11904     11902     11905
     11905     11906     11905     11907     11905     11908     11908     11909
     11908     11910     11908     11911     11911     11912     11911     11913
     11911     11914     11914     11915     11914     11916     11914     11917
     11917     11918     11917     11919     11917     11920     11920     11921
     11920     11922     11920     11923     11871     11872     11872     11874
     11872     11873     11874     11875     11874     11876     11874     11924
     11924     11925     11924     11926     11924     11927     11927     11928
     11927     11929     11927     11930     11930     11931     11930     11932
     11930     11933     11933     11934     11933     11935     11933     11936
     11936     11937     11936     11938     11936     11939     11939     11940
     11939     11941     11939     11942     11942     11943     11942     11944
     11944     11945     11944     11946     11946     11947     11946     11948
     11946     11949     11949     11950     11949     11951     11949     11952
     11952     11953     11952     11954     11952     11955     11955     11956
     11955     11957     11955     11958     11958     11959     11958     11960
     11958     11961     11961     11962     11961     11963     11961     11964
     11964     11965     11964     11966     11964     11967     11967     11968
     11967     11969     11967     11970     11971     11972     11971     11973
     11971     11974     11971     11975     11975     11976     11975     11977
     11975     11978     11978     11979     11978     11980     11978     11985
     11985     11981     11981     11984     11981     11982     11981     11983
     11986     11987     11986     11988     11986     11989     11986     11984
     11989     11990     11989     11997     11989     11991     11997     11998
     11997     11999     11997     12000     11991     11992     11992     11994
     11992     11993     11994     11995     11994     11996     11994     12006
     12006     12007     12006     12008     12006     12009     12009     12010
     12009     12011     12009     12012     12012     12013     12012     12014
     12012     12015     12015     12016     12015     12017     12015     12018
     12018     12019     12018     12020     12018     12021     12021     12022
     12021     12023     12021     12024     12024     12025     12024     12026
     12026     12027     12026     12028     12028     12029     12028     12030
     12028     12031     12031     12032     12031     12033     12031     12034
     12034     12035     12034     12036     12034     12037     12037     12038
     12037     12039     12037     12040     12040     12041     12040     12042
     12040     12043     12043     12044     12043     12045     12043     12046
     12046     12047     12046     12048     12046     12049     12049     12050
     12049     12051     12049     12052     12000     12001     12001     12003
     12001     12002     12003     12004     12003     12005     12003     12053
     12053     12054     12053     12055     12053     12056     12056     12057
     12056     12058     12056     12059     12059     12060     12059     12061
     12059     12062     12062     12063     12062     12064     12062     12065
     12065     12066     12065     12067     12065     12068     12068     12069
     12068     12070     12068     12071     12071     12072     12071     12073
     12073     12074     12073     12075     12075     12076     12075     12077
     12075     12078     12078     12079     12078     12080     12078     12081
     12081     12082     12081     12083     12081     12084     12084     12085
     12084     12086     12084     12087     12087     12088     12087     12089
     12087     12090     12090     12091     12090     12092     12090     12093
     12093     12094     12093     12095     12093     12096     12096     12097
     12096     12098     12096     12099     12175     12176     12175     12177
     12175     12178     12175     12172     12172     12173     12172     12174
     12172     12169     12169     12170     12169     12171     12169     12166
     12166     12167     12166     12168     12166     12163     12163     12164
     12163     12165     12163     12160     12160     12161     12160     12162
     12160     12157     12157     12158     12157     12159     12157     12154
     12154     12155     12154     12156     12154     12151     12151     12152
     12151     12153     12151     12148     12148     12149     12148     12150
     12148     12145     12145     12146     12145     12147     12145     12142
     12142     12143     12142     12144     12142     12139     12139     12140
     12139     12141     12139     12137     12137     12138     12135     12136
     12135     12131     12131     12132     12131     12133     12133     12134
     12131     12129     12129     12130     12129     12124     12124     12125
     12124     12126     12124     12122     12122     12119     12123     12119
     12120     12119     12121     12119     12123     12116     12116     12117
     12116     12118     12116     12113     12113     12114     12113     12115
     12113     12100     12100     12109     12100     12105     12100     12101
     12109     12110     12109     12111     12109     12112     12105     12106
     12105     12107     12105     12108     12101     12102     12101     12103
     12101     12104     12129     12127     12127     12128     12127     12179
     12179     12181     12181     12182     12181     12183     12181     12184
     12184     12185     12184     12186     12184     12187     12187     12188
     12187     12189     12187     12190     12190     12191     12190     12192
     12190     12193     12193     12194     12193     12195     12193     12196
     12196     12197     12196     12198     12196     12199     12199     12200
     12199     12201     12199     12202     12202     12203     12202     12204
     12202     12205     12205     12206     12205     12207     12205     12208
     12208     12209     12208     12210     12208     12211     12211     12212
     12211     12213     12211     12214     12214     12215     12214     12216
     12214     12217     12217     12218     12217     12219     12217     12220
     12220     12221     12220     12222     12220     12223     12223     12224
     12223     12225     12223     12226     12226     12227     12226     12228
     12226     12229     12229     12230     12229     12231     12229     12232
     12232     12233     12232     12234     12232     12235     12235     12236
     12235     12237     12235     12238     12238     12239     12238     12240
     12238     12241     12241     12242     12241     12243     12241     12244
     12244     12245     12244     12246     12244     12247     12135     12137
     12179     12180     12248     12249     12248     12250     12248     12251
     12248     12252     12252     12253     12252     12254     12252     12255
     12255     12256     12255     12257     12255     12262     12262     12258
     12258     12261     12258     12259     12258     12260     12263     12264
     12263     12265     12263     12266     12263     12261     12266     12267
     12266     12274     12266     12268     12274     12275     12274     12276
     12274     12277     12268     12269     12269     12271     12269     12270
     12271     12272     12271     12273     12271     12283     12283     12284
     12283     12285     12283     12286     12286     12287     12286     12288
     12286     12289     12289     12290     12289     12291     12289     12292
     12292     12293     12292     12294     12292     12295     12295     12296
     12295     12297     12295     12298     12298     12299     12298     12300
     12298     12301     12301     12302     12301     12303     12303     12304
     12303     12305     12305     12306     12305     12307     12305     12308
     12308     12309     12308     12310     12308     12311     12311     12312
     12311     12313     12311     12314     12314     12315     12314     12316
     12314     12317     12317     12318     12317     12319     12317     12320
     12320     12321     12320     12322     12320     12323     12323     12324
     12323     12325     12323     12326     12326     12327     12326     12328
     12326     12329     12277     12278     12278     12280     12278     12279
     12280     12281     12280     12282     12280     12330     12330     12331
     12330     12332     12330     12333     12333     12334     12333     12335
     12333     12336     12336     12337     12336     12338     12336     12339
     12339     12340     12339     12341     12339     12342     12342     12343
     12342     12344     12342     12345     12345     12346     12345     12347
     12345     12348     12348     12349     12348     12350     12350     12351
     12350     12352     12352     12353     12352     12354     12352     12355
     12355     12356     12355     12357     12355     12358     12358     12359
     12358     12360     12358     12361     12361     12362     12361     12363
     12361     12364     12364     12365     12364     12366     12364     12367
     12367     12368     12367     12369     12367     12370     12370     12371
     12370     12372     12370     12373     12373     12374     12373     12375
     12373     12376     12377     12379     12377     12378     12379     12380
     12377     12423     12423     12424     12423     12425     12423     12420
     12420     12421     12420     12422     12377     12381     12381     12382
     12381     12383     12381     12384     12384     12415     12415     12420
     12415     12416     12416     12417     12416     12418     12416     12419
     12384     12385     12385     12386     12385     12387     12387     12388
     12387     12389     12387     12390     12390     12391     12390     12413
     12413     12414     12413     12415     12390     12392     12392     12393
     12392     12402     12402     12407     12407     12408     12407     12409
     12407     12410     12410     12411     12410     12412     12410     12413
     12402     12403     12403     12404     12403     12405     12403     12406
     12392     12394     12394     12395     12394     12396     12394     12397
     12397     12398     12397     12399     12397     12400     12400     12401
     12400     12402     12400     12426     12426     12427     12426     12428
     12428     12429     12428     12430     12428     12431     12426     12432
     12432     12433     12432     12434     12432     12435     12435     12436
     12435     12437     12435     12438     12438     12439     12438     12440
     12438     12441     12441     12442     12441     12443     12443     12444
     12443     12445     12443     12446     12441     12447     12447     12448
     12447     12449     12447     12450     12526     12527     12526     12528
     12526     12529     12526     12523     12523     12524     12523     12525
     12523     12520     12520     12521     12520     12522     12520     12517
     12517     12518     12517     12519     12517     12514     12514     12515
     12514     12516     12514     12511     12511     12512     12511     12513
     12511     12508     12508     12509     12508     12510     12508     12505
     12505     12506     12505     12507     12505     12502     12502     12503
     12502     12504     12502     12499     12499     12500     12499     12501
     12499     12496     12496     12497     12496     12498     12496     12493
     12493     12494     12493     12495     12493     12490     12490     12491
     12490     12492     12490     12488     12488     12489     12486     12487
     12486     12482     12482     12483     12482     12484     12484     12485
     12482     12480     12480     12481     12480     12475     12475     12476
     12475     12477     12475     12473     12473     12470     12474     12470
     12471     12470     12472     12470     12474     12467     12467     12468
     12467     12469     12467     12464     12464     12465     12464     12466
     12464     12451     12451     12460     12451     12456     12451     12452
     12460     12461     12460     12462     12460     12463     12456     12457
     12456     12458     12456     12459     12452     12453     12452     12454
     12452     12455     12480     12478     12478     12479     12478     12530
     12530     12532     12532     12533     12532     12534     12532     12535
     12535     12536     12535     12537     12535     12538     12538     12539
     12538     12540     12538     12541     12541     12542     12541     12543
     12541     12544     12544     12545     12544     12546     12544     12547
     12547     12548     12547     12549     12547     12550     12550     12551
     12550     12552     12550     12553     12553     12554     12553     12555
     12553     12556     12556     12557     12556     12558     12556     12559
     12559     12560     12559     12561     12559     12562     12562     12563
     12562     12564     12562     12565     12565     12566     12565     12567
     12565     12568     12568     12569     12568     12570     12568     12571
     12571     12572     12571     12573     12571     12574     12574     12575
     12574     12576     12574     12577     12577     12578     12577     12579
     12577     12580     12580     12581     12580     12582     12580     12583
     12583     12584     12583     12585     12583     12586     12586     12587
     12586     12588     12586     12589     12589     12590     12589     12591
     12589     12592     12592     12593     12592     12594     12592     12595
     12595     12596     12595     12597     12595     12598     12486     12488
     12530     12531     12599     12601     12599     12600     12601     12602
     12599     12645     12645     12646     12645     12647     12645     12642
     12642     12643     12642     12644     12599     12603     12603     12604
     12603     12605     12603     12606     12606     12637     12637     12642
     12637     12638     12638     12639     12638     12640     12638     12641
     12606     12607     12607     12608     12607     12609     12609     12610
     12609     12611     12609     12612     12612     12613     12612     12635
     12635     12636     12635     12637     12612     12614     12614     12615
     12614     12624     12624     12629     12629     12630     12629     12631
     12629     12632     12632     12633     12632     12634     12632     12635
     12624     12625     12625     12626     12625     12627     12625     12628
     12614     12616     12616     12617     12616     12618     12616     12619
     12619     12620     12619     12621     12619     12622     12622     12623
     12622     12624     12622     12648     12648     12649     12648     12650
     12650     12651     12650     12652     12650     12653     12648     12654
     12654     12655     12654     12656     12654     12657     12657     12658
     12657     12659     12657     12660     12660     12661     12660     12662
     12660     12663     12663     12664     12663     12665     12665     12666
     12665     12667     12665     12668     12663     12669     12669     12670
     12669     12671     12669     12672     12748     12749     12748     12750
     12748     12751     12748     12745     12745     12746     12745     12747
     12745     12742     12742     12743     12742     12744     12742     12739
     12739     12740     12739     12741     12739     12736     12736     12737
     12736     12738     12736     12733     12733     12734     12733     12735
     12733     12730     12730     12731     12730     12732     12730     12727
     12727     12728     12727     12729     12727     12724     12724     12725
     12724     12726     12724     12721     12721     12722     12721     12723
     12721     12718     12718     12719     12718     12720     12718     12715
     12715     12716     12715     12717     12715     12712     12712     12713
     12712     12714     12712     12710     12710     12711     12708     12709
     12708     12704     12704     12705     12704     12706     12706     12707
     12704     12702     12702     12703     12702     12697     12697     12698
     12697     12699     12697     12695     12695     12692     12696     12692
     12693     12692     12694     12692     12696     12689     12689     12690
     12689     12691     12689     12686     12686     12687     12686     12688
     12686     12673     12673     12682     12673     12678     12673     12674
     12682     12683     12682     12684     12682     12685     12678     12679
     12678     12680     12678     12681     12674     12675     12674     12676
     12674     12677     12702     12700     12700     12701     12700     12752
     12752     12754     12754     12755     12754     12756     12754     12757
     12757     12758     12757     12759     12757     12760     12760     12761
     12760     12762     12760     12763     12763     12764     12763     12765
     12763     12766     12766     12767     12766     12768     12766     12769
     12769     12770     12769     12771     12769     12772     12772     12773
     12772     12774     12772     12775     12775     12776     12775     12777
     12775     12778     12778     12779     12778     12780     12778     12781
     12781     12782     12781     12783     12781     12784     12784     12785
     12784     12786     12784     12787     12787     12788     12787     12789
     12787     12790     12790     12791     12790     12792     12790     12793
     12793     12794     12793     12795     12793     12796     12796     12797
     12796     12798     12796     12799     12799     12800     12799     12801
     12799     12802     12802     12803     12802     12804     12802     12805
     12805     12806     12805     12807     12805     12808     12808     12809
     12808     12810     12808     12811     12811     12812     12811     12813
     12811     12814     12814     12815     12814     12816     12814     12817
     12817     12818     12817     12819     12817     12820     12708     12710
     12752     12753     12821     12825     12821     12829     12821     12833
     12825     12826     12825     12827     12825     12828     12829     12830
     12829     12831     12829     12832     12833     12834     12833     12835
     12833     12836     12821     12822     12822     12823     12822     12824
     12822     12837     12837     12838     12837     12839     12837     12843
     12844     12845     12843     12840     12840     12844     12840     12841
     12840     12842     12845     12846     12845     12847     12845     12848
     12848     12849     12848     12856     12848     12850     12856     12857
     12856     12858     12856     12859     12850     12851     12851     12853
     12851     12852     12853     12854     12853     12855     12853     12865
     12865     12866     12865     12867     12865     12868     12868     12869
     12868     12870     12868     12871     12871     12872     12871     12873
     12871     12874     12874     12875     12874     12876     12874     12877
     12877     12878     12877     12879     12877     12880     12880     12881
     12880     12882     12880     12883     12883     12884     12883     12885
     12885     12886     12885     12887     12887     12888     12887     12889
     12887     12890     12890     12891     12890     12892     12890     12893
     12893     12894     12893     12895     12893     12896     12896     12897
     12896     12898     12896     12899     12899     12900     12899     12901
     12899     12902     12902     12903     12902     12904     12902     12905
     12905     12906     12905     12907     12905     12908     12908     12909
     12908     12910     12908     12911     12859     12860     12860     12862
     12860     12861     12862     12863     12862     12864     12862     12912
     12912     12913     12912     12914     12912     12915     12915     12916
     12915     12917     12915     12918     12918     12919     12918     12920
     12918     12921     12921     12922     12921     12923     12921     12924
     12924     12925     12924     12926     12924     12927     12927     12928
     12927     12929     12927     12930     12930     12931     12930     12932
     12932     12933     12932     12934     12934     12935     12934     12936
     12934     12937     12937     12938     12937     12939     12937     12940
     12940     12941     12940     12942     12940     12943     12943     12944
     12943     12945     12943     12946     12946     12947     12946     12948
     12946     12949     12949     12950     12949     12951     12949     12952
     12952     12953     12952     12954     12952     12955     12955     12956
     12955     12957     12955     12958     12959     12963     12959     12967
     12959     12971     12963     12964     12963     12965     12963     12966
     12967     12968     12967     12969     12967     12970     12971     12972
     12971     12973     12971     12974     12959     12960     12960     12961
     12960     12962     12960     12975     12975     12976     12975     12977
     12975     12981     12982     12983     12981     12978     12978     12982
     12978     12979     12978     12980     12983     12984     12983     12985
     12983     12986     12986     12987     12986     12994     12986     12988
     12994     12995     12994     12996     12994     12997     12988     12989
     12989     12991     12989     12990     12991     12992     12991     12993
     12991     13003     13003     13004     13003     13005     13003     13006
     13006     13007     13006     13008     13006     13009     13009     13010
     13009     13011     13009     13012     13012     13013     13012     13014
     13012     13015     13015     13016     13015     13017     13015     13018
     13018     13019     13018     13020     13018     13021     13021     13022
     13021     13023     13023     13024     13023     13025     13025     13026
     13025     13027     13025     13028     13028     13029     13028     13030
     13028     13031     13031     13032     13031     13033     13031     13034
     13034     13035     13034     13036     13034     13037     13037     13038
     13037     13039     13037     13040     13040     13041     13040     13042
     13040     13043     13043     13044     13043     13045     13043     13046
     13046     13047     13046     13048     13046     13049     12997     12998
     12998     13000     12998     12999     13000     13001     13000     13002
     13000     13050     13050     13051     13050     13052     13050     13053
     13053     13054     13053     13055     13053     13056     13056     13057
     13056     13058     13056     13059     13059     13060     13059     13061
     13059     13062     13062     13063     13062     13064     13062     13065
     13065     13066     13065     13067     13065     13068     13068     13069
     13068     13070     13070     13071     13070     13072     13072     13073
     13072     13074     13072     13075     13075     13076     13075     13077
     13075     13078     13078     13079     13078     13080     13078     13081
     13081     13082     13081     13083     13081     13084     13084     13085
     13084     13086     13084     13087     13087     13088     13087     13089
     13087     13090     13090     13091     13090     13092     13090     13093
     13093     13094     13093     13095     13093     13096     13097     13098
     13097     13099     13097     13100     13097     13101     13101     13102
     13101     13103     13101     13104     13104     13105     13104     13106
     13104     13111     13111     13107     13107     13110     13107     13108
     13107     13109     13112     13113     13112     13114     13112     13115
     13112     13110     13115     13116     13115     13123     13115     13117
     13123     13124     13123     13125     13123     13126     13117     13118
     13118     13120     13118     13119     13120     13121     13120     13122
     13120     13132     13132     13133     13132     13134     13132     13135
     13135     13136     13135     13137     13135     13138     13138     13139
     13138     13140     13138     13141     13141     13142     13141     13143
     13141     13144     13144     13145     13144     13146     13144     13147
     13147     13148     13147     13149     13147     13150     13150     13151
     13150     13152     13152     13153     13152     13154     13154     13155
     13154     13156     13154     13157     13157     13158     13157     13159
     13157     13160     13160     13161     13160     13162     13160     13163
     13163     13164     13163     13165     13163     13166     13166     13167
     13166     13168     13166     13169     13169     13170     13169     13171
     13169     13172     13172     13173     13172     13174     13172     13175
     13175     13176     13175     13177     13175     13178     13126     13127
     13127     13129     13127     13128     13129     13130     13129     13131
     13129     13179     13179     13180     13179     13181     13179     13182
     13182     13183     13182     13184     13182     13185     13185     13186
     13185     13187     13185     13188     13188     13189     13188     13190
     13188     13191     13191     13192     13191     13193     13191     13194
     13194     13195     13194     13196     13194     13197     13197     13198
     13197     13199     13199     13200     13199     13201     13201     13202
     13201     13203     13201     13204     13204     13205     13204     13206
     13204     13207     13207     13208     13207     13209     13207     13210
     13210     13211     13210     13212     13210     13213     13213     13214
     13213     13215     13213     13216     13216     13217     13216     13218
     13216     13219     13219     13220     13219     13221     13219     13222
     13222     13223     13222     13224     13222     13225     13226     13227
     13226     13228     13226     13229     13226     13230     13230     13231
     13230     13232     13230     13233     13233     13234     13233     13235
     13233     13240     13240     13236     13236     13239     13236     13237
     13236     13238     13241     13242     13241     13243     13241     13244
     13241     13239     13244     13245     13244     13252     13244     13246
     13252     13253     13252     13254     13252     13255     13246     13247
     13247     13249     13247     13248     13249     13250     13249     13251
     13249     13261     13261     13262     13261     13263     13261     13264
     13264     13265     13264     13266     13264     13267     13267     13268
     13267     13269     13267     13270     13270     13271     13270     13272
     13270     13273     13273     13274     13273     13275     13273     13276
     13276     13277     13276     13278     13276     13279     13279     13280
     13279     13281     13281     13282     13281     13283     13283     13284
     13283     13285     13283     13286     13286     13287     13286     13288
     13286     13289     13289     13290     13289     13291     13289     13292
     13292     13293     13292     13294     13292     13295     13295     13296
     13295     13297     13295     13298     13298     13299     13298     13300
     13298     13301     13301     13302     13301     13303     13301     13304
     13304     13305     13304     13306     13304     13307     13255     13256
     13256     13258     13256     13257     13258     13259     13258     13260
     13258     13308     13308     13309     13308     13310     13308     13311
     13311     13312     13311     13313     13311     13314     13314     13315
     13314     13316     13314     13317     13317     13318     13317     13319
     13317     13320     13320     13321     13320     13322     13320     13323
     13323     13324     13323     13325     13323     13326     13326     13327
     13326     13328     13328     13329     13328     13330     13330     13331
     13330     13332     13330     13333     13333     13334     13333     13335
     13333     13336     13336     13337     13336     13338     13336     13339
     13339     13340     13339     13341     13339     13342     13342     13343
     13342     13344     13342     13345     13345     13346     13345     13347
     13345     13348     13348     13349     13348     13350     13348     13351
     13351     13352     13351     13353     13351     13354     13430     13431
     13430     13432     13430     13433     13430     13427     13427     13428
     13427     13429     13427     13424     13424     13425     13424     13426
     13424     13421     13421     13422     13421     13423     13421     13418
     13418     13419     13418     13420     13418     13415     13415     13416
     13415     13417     13415     13412     13412     13413     13412     13414
     13412     13409     13409     13410     13409     13411     13409     13406
     13406     13407     13406     13408     13406     13403     13403     13404
     13403     13405     13403     13400     13400     13401     13400     13402
     13400     13397     13397     13398     13397     13399     13397     13394
     13394     13395     13394     13396     13394     13392     13392     13393
     13390     13391     13390     13386     13386     13387     13386     13388
     13388     13389     13386     13384     13384     13385     13384     13379
     13379     13380     13379     13381     13379     13377     13377     13374
     13378     13374     13375     13374     13376     13374     13378     13371
     13371     13372     13371     13373     13371     13368     13368     13369
     13368     13370     13368     13355     13355     13364     13355     13360
     13355     13356     13364     13365     13364     13366     13364     13367
     13360     13361     13360     13362     13360     13363     13356     13357
     13356     13358     13356     13359     13384     13382     13382     13383
     13382     13434     13434     13436     13436     13437     13436     13438
     13436     13439     13439     13440     13439     13441     13439     13442
     13442     13443     13442     13444     13442     13445     13445     13446
     13445     13447     13445     13448     13448     13449     13448     13450
     13448     13451     13451     13452     13451     13453     13451     13454
     13454     13455     13454     13456     13454     13457     13457     13458
     13457     13459     13457     13460     13460     13461     13460     13462
     13460     13463     13463     13464     13463     13465     13463     13466
     13466     13467     13466     13468     13466     13469     13469     13470
     13469     13471     13469     13472     13472     13473     13472     13474
     13472     13475     13475     13476     13475     13477     13475     13478
     13478     13479     13478     13480     13478     13481     13481     13482
     13481     13483     13481     13484     13484     13485     13484     13486
     13484     13487     13487     13488     13487     13489     13487     13490
     13490     13491     13490     13492     13490     13493     13493     13494
     13493     13495     13493     13496     13496     13497     13496     13498
     13496     13499     13499     13500     13499     13501     13499     13502
     13390     13392     13434     13435     13503     13505     13503     13504
     13505     13506     13503     13549     13549     13550     13549     13551
     13549     13546     13546     13547     13546     13548     13503     13507
     13507     13508     13507     13509     13507     13510     13510     13541
     13541     13546     13541     13542     13542     13543     13542     13544
     13542     13545     13510     13511     13511     13512     13511     13513
     13513     13514     13513     13515     13513     13516     13516     13517
     13516     13539     13539     13540     13539     13541     13516     13518
     13518     13519     13518     13528     13528     13533     13533     13534
     13533     13535     13533     13536     13536     13537     13536     13538
     13536     13539     13528     13529     13529     13530     13529     13531
     13529     13532     13518     13520     13520     13521     13520     13522
     13520     13523     13523     13524     13523     13525     13523     13526
     13526     13527     13526     13528     13526     13552     13552     13553
     13552     13554     13554     13555     13554     13556     13554     13557
     13552     13558     13558     13559     13558     13560     13558     13561
     13561     13562     13561     13563     13561     13564     13564     13565
     13564     13566     13564     13567     13567     13568     13567     13569
     13569     13570     13569     13571     13569     13572     13567     13573
     13573     13574     13573     13575     13573     13576     13577     13579
     13577     13578     13579     13580     13577     13623     13623     13624
     13623     13625     13623     13620     13620     13621     13620     13622
     13577     13581     13581     13582     13581     13583     13581     13584
     13584     13615     13615     13620     13615     13616     13616     13617
     13616     13618     13616     13619     13584     13585     13585     13586
     13585     13587     13587     13588     13587     13589     13587     13590
     13590     13591     13590     13613     13613     13614     13613     13615
     13590     13592     13592     13593     13592     13602     13602     13607
     13607     13608     13607     13609     13607     13610     13610     13611
     13610     13612     13610     13613     13602     13603     13603     13604
     13603     13605     13603     13606     13592     13594     13594     13595
     13594     13596     13594     13597     13597     13598     13597     13599
     13597     13600     13600     13601     13600     13602     13600     13626
     13626     13627     13626     13628     13628     13629     13628     13630
     13628     13631     13626     13632     13632     13633     13632     13634
     13632     13635     13635     13636     13635     13637     13635     13638
     13638     13639     13638     13640     13638     13641     13641     13642
     13641     13643     13643     13644     13643     13645     13643     13646
     13641     13647     13647     13648     13647     13649     13647     13650
     13651     13653     13651     13652     13653     13654     13651     13697
     13697     13698     13697     13699     13697     13694     13694     13695
     13694     13696     13651     13655     13655     13656     13655     13657
     13655     13658     13658     13689     13689     13694     13689     13690
     13690     13691     13690     13692     13690     13693     13658     13659
     13659     13660     13659     13661     13661     13662     13661     13663
     13661     13664     13664     13665     13664     13687     13687     13688
     13687     13689     13664     13666     13666     13667     13666     13676
     13676     13681     13681     13682     13681     13683     13681     13684
     13684     13685     13684     13686     13684     13687     13676     13677
     13677     13678     13677     13679     13677     13680     13666     13668
     13668     13669     13668     13670     13668     13671     13671     13672
     13671     13673     13671     13674     13674     13675     13674     13676
     13674     13700     13700     13701     13700     13702     13702     13703
     13702     13704     13702     13705     13700     13706     13706     13707
     13706     13708     13706     13709     13709     13710     13709     13711
     13709     13712     13712     13713     13712     13714     13712     13715
     13715     13716     13715     13717     13717     13718     13717     13719
     13717     13720     13715     13721     13721     13722     13721     13723
     13721     13724     13800     13801     13800     13802     13800     13803
     13800     13797     13797     13798     13797     13799     13797     13794
     13794     13795     13794     13796     13794     13791     13791     13792
     13791     13793     13791     13788     13788     13789     13788     13790
     13788     13785     13785     13786     13785     13787     13785     13782
     13782     13783     13782     13784     13782     13779     13779     13780
     13779     13781     13779     13776     13776     13777     13776     13778
     13776     13773     13773     13774     13773     13775     13773     13770
     13770     13771     13770     13772     13770     13767     13767     13768
     13767     13769     13767     13764     13764     13765     13764     13766
     13764     13762     13762     13763     13760     13761     13760     13756
     13756     13757     13756     13758     13758     13759     13756     13754
     13754     13755     13754     13749     13749     13750     13749     13751
     13749     13747     13747     13744     13748     13744     13745     13744
     13746     13744     13748     13741     13741     13742     13741     13743
     13741     13738     13738     13739     13738     13740     13738     13725
     13725     13734     13725     13730     13725     13726     13734     13735
     13734     13736     13734     13737     13730     13731     13730     13732
     13730     13733     13726     13727     13726     13728     13726     13729
     13754     13752     13752     13753     13752     13804     13804     13806
     13806     13807     13806     13808     13806     13809     13809     13810
     13809     13811     13809     13812     13812     13813     13812     13814
     13812     13815     13815     13816     13815     13817     13815     13818
     13818     13819     13818     13820     13818     13821     13821     13822
     13821     13823     13821     13824     13824     13825     13824     13826
     13824     13827     13827     13828     13827     13829     13827     13830
     13830     13831     13830     13832     13830     13833     13833     13834
     13833     13835     13833     13836     13836     13837     13836     13838
     13836     13839     13839     13840     13839     13841     13839     13842
     13842     13843     13842     13844     13842     13845     13845     13846
     13845     13847     13845     13848     13848     13849     13848     13850
     13848     13851     13851     13852     13851     13853     13851     13854
     13854     13855     13854     13856     13854     13857     13857     13858
     13857     13859     13857     13860     13860     13861     13860     13862
     13860     13863     13863     13864     13863     13865     13863     13866
     13866     13867     13866     13868     13866     13869     13869     13870
     13869     13871     13869     13872     13760     13762     13804     13805
     13873     13874     13873     13875     13873     13876     13873     13877
     13877     13878     13877     13879     13877     13880     13880     13881
     13880     13882     13880     13887     13887     13883     13883     13886
     13883     13884     13883     13885     13888     13889     13888     13890
     13888     13891     13888     13886     13891     13892     13891     13899
     13891     13893     13899     13900     13899     13901     13899     13902
     13893     13894     13894     13896     13894     13895     13896     13897
     13896     13898     13896     13908     13908     13909     13908     13910
     13908     13911     13911     13912     13911     13913     13911     13914
     13914     13915     13914     13916     13914     13917     13917     13918
     13917     13919     13917     13920     13920     13921     13920     13922
     13920     13923     13923     13924     13923     13925     13923     13926
     13926     13927     13926     13928     13928     13929     13928     13930
     13930     13931     13930     13932     13930     13933     13933     13934
     13933     13935     13933     13936     13936     13937     13936     13938
     13936     13939     13939     13940     13939     13941     13939     13942
     13942     13943     13942     13944     13942     13945     13945     13946
     13945     13947     13945     13948     13948     13949     13948     13950
     13948     13951     13951     13952     13951     13953     13951     13954
     13902     13903     13903     13905     13903     13904     13905     13906
     13905     13907     13905     13955     13955     13956     13955     13957
     13955     13958     13958     13959     13958     13960     13958     13961
     13961     13962     13961     13963     13961     13964     13964     13965
     13964     13966     13964     13967     13967     13968     13967     13969
     13967     13970     13970     13971     13970     13972     13970     13973
     13973     13974     13973     13975     13975     13976     13975     13977
     13977     13978     13977     13979     13977     13980     13980     13981
     13980     13982     13980     13983     13983     13984     13983     13985
     13983     13986     13986     13987     13986     13988     13986     13989
     13989     13990     13989     13991     13989     13992     13992     13993
     13992     13994     13992     13995     13995     13996     13995     13997
     13995     13998     13998     13999     13998     14000     13998     14001
     14002     14004     14002     14003     14004     14005     14002     14048
     14048     14049     14048     14050     14048     14045     14045     14046
     14045     14047     14002     14006     14006     14007     14006     14008
     14006     14009     14009     14040     14040     14045     14040     14041
     14041     14042     14041     14043     14041     14044     14009     14010
     14010     14011     14010     14012     14012     14013     14012     14014
     14012     14015     14015     14016     14015     14038     14038     14039
     14038     14040     14015     14017     14017     14018     14017     14027
     14027     14032     14032     14033     14032     14034     14032     14035
     14035     14036     14035     14037     14035     14038     14027     14028
     14028     14029     14028     14030     14028     14031     14017     14019
     14019     14020     14019     14021     14019     14022     14022     14023
     14022     14024     14022     14025     14025     14026     14025     14027
     14025     14051     14051     14052     14051     14053     14053     14054
     14053     14055     14053     14056     14051     14057     14057     14058
     14057     14059     14057     14060     14060     14061     14060     14062
     14060     14063     14063     14064     14063     14065     14063     14066
     14066     14067     14066     14068     14068     14069     14068     14070
     14068     14071     14066     14072     14072     14073     14072     14074
     14072     14075     14076     14077     14076     14078     14076     14079
     14076     14080     14080     14081     14080     14082     14080     14083
     14083     14084     14083     14085     14083     14090     14090     14086
     14086     14089     14086     14087     14086     14088     14091     14092
     14091     14093     14091     14094     14091     14089     14094     14095
     14094     14102     14094     14096     14102     14103     14102     14104
     14102     14105     14096     14097     14097     14099     14097     14098
     14099     14100     14099     14101     14099     14111     14111     14112
     14111     14113     14111     14114     14114     14115     14114     14116
     14114     14117     14117     14118     14117     14119     14117     14120
     14120     14121     14120     14122     14120     14123     14123     14124
     14123     14125     14123     14126     14126     14127     14126     14128
     14126     14129     14129     14130     14129     14131     14131     14132
     14131     14133     14133     14134     14133     14135     14133     14136
     14136     14137     14136     14138     14136     14139     14139     14140
     14139     14141     14139     14142     14142     14143     14142     14144
     14142     14145     14145     14146     14145     14147     14145     14148
     14148     14149     14148     14150     14148     14151     14151     14152
     14151     14153     14151     14154     14154     14155     14154     14156
     14154     14157     14105     14106     14106     14108     14106     14107
     14108     14109     14108     14110     14108     14158     14158     14159
     14158     14160     14158     14161     14161     14162     14161     14163
     14161     14164     14164     14165     14164     14166     14164     14167
     14167     14168     14167     14169     14167     14170     14170     14171
     14170     14172     14170     14173     14173     14174     14173     14175
     14173     14176     14176     14177     14176     14178     14178     14179
     14178     14180     14180     14181     14180     14182     14180     14183
     14183     14184     14183     14185     14183     14186     14186     14187
     14186     14188     14186     14189     14189     14190     14189     14191
     14189     14192     14192     14193     14192     14194     14192     14195
     14195     14196     14195     14197     14195     14198     14198     14199
     14198     14200     14198     14201     14201     14202     14201     14203
     14201     14204     14205     14207     14205     14206     14207     14208
     14205     14251     14251     14252     14251     14253     14251     14248
     14248     14249     14248     14250     14205     14209     14209     14210
     14209     14211     14209     14212     14212     14243     14243     14248
     14243     14244     14244     14245     14244     14246     14244     14247
     14212     14213     14213     14214     14213     14215     14215     14216
     14215     14217     14215     14218     14218     14219     14218     14241
     14241     14242     14241     14243     14218     14220     14220     14221
     14220     14230     14230     14235     14235     14236     14235     14237
     14235     14238     14238     14239     14238     14240     14238     14241
     14230     14231     14231     14232     14231     14233     14231     14234
     14220     14222     14222     14223     14222     14224     14222     14225
     14225     14226     14225     14227     14225     14228     14228     14229
     14228     14230     14228     14254     14254     14255     14254     14256
     14256     14257     14256     14258     14256     14259     14254     14260
     14260     14261     14260     14262     14260     14263     14263     14264
     14263     14265     14263     14266     14266     14267     14266     14268
     14266     14269     14269     14270     14269     14271     14271     14272
     14271     14273     14271     14274     14269     14275     14275     14276
     14275     14277     14275     14278     14279     14280     14279     14281
     14279     14282     14279     14283     14283     14284     14283     14285
     14283     14286     14286     14287     14286     14288     14286     14293
     14293     14289     14289     14292     14289     14290     14289     14291
     14294     14295     14294     14296     14294     14297     14294     14292
     14297     14298     14297     14305     14297     14299     14305     14306
     14305     14307     14305     14308     14299     14300     14300     14302
     14300     14301     14302     14303     14302     14304     14302     14314
     14314     14315     14314     14316     14314     14317     14317     14318
     14317     14319     14317     14320     14320     14321     14320     14322
     14320     14323     14323     14324     14323     14325     14323     14326
     14326     14327     14326     14328     14326     14329     14329     14330
     14329     14331     14329     14332     14332     14333     14332     14334
     14334     14335     14334     14336     14336     14337     14336     14338
     14336     14339     14339     14340     14339     14341     14339     14342
     14342     14343     14342     14344     14342     14345     14345     14346
     14345     14347     14345     14348     14348     14349     14348     14350
     14348     14351     14351     14352     14351     14353     14351     14354
     14354     14355     14354     14356     14354     14357     14357     14358
     14357     14359     14357     14360     14308     14309     14309     14311
     14309     14310     14311     14312     14311     14313     14311     14361
     14361     14362     14361     14363     14361     14364     14364     14365
     14364     14366     14364     14367     14367     14368     14367     14369
     14367     14370     14370     14371     14370     14372     14370     14373
     14373     14374     14373     14375     14373     14376     14376     14377
     14376     14378     14376     14379     14379     14380     14379     14381
     14381     14382     14381     14383     14383     14384     14383     14385
     14383     14386     14386     14387     14386     14388     14386     14389
     14389     14390     14389     14391     14389     14392     14392     14393
     14392     14394     14392     14395     14395     14396     14395     14397
     14395     14398     14398     14399     14398     14400     14398     14401
     14401     14402     14401     14403     14401     14404     14404     14405
     14404     14406     14404     14407     14408     14412     14408     14416
     14408     14420     14412     14413     14412     14414     14412     14415
     14416     14417     14416     14418     14416     14419     14420     14421
     14420     14422     14420     14423     14408     14409     14409     14410
     14409     14411     14409     14424     14424     14425     14424     14426
     14424     14430     14431     14432     14430     14427     14427     14431
     14427     14428     14427     14429     14432     14433     14432     14434
     14432     14435     14435     14436     14435     14443     14435     14437
     14443     14444     14443     14445     14443     14446     14437     14438
     14438     14440     14438     14439     14440     14441     14440     14442
     14440     14452     14452     14453     14452     14454     14452     14455
     14455     14456     14455     14457     14455     14458     14458     14459
     14458     14460     14458     14461     14461     14462     14461     14463
     14461     14464     14464     14465     14464     14466     14464     14467
     14467     14468     14467     14469     14467     14470     14470     14471
     14470     14472     14472     14473     14472     14474     14474     14475
     14474     14476     14474     14477     14477     14478     14477     14479
     14477     14480     14480     14481     14480     14482     14480     14483
     14483     14484     14483     14485     14483     14486     14486     14487
     14486     14488     14486     14489     14489     14490     14489     14491
     14489     14492     14492     14493     14492     14494     14492     14495
     14495     14496     14495     14497     14495     14498     14446     14447
     14447     14449     14447     14448     14449     14450     14449     14451
     14449     14499     14499     14500     14499     14501     14499     14502
     14502     14503     14502     14504     14502     14505     14505     14506
     14505     14507     14505     14508     14508     14509     14508     14510
     14508     14511     14511     14512     14511     14513     14511     14514
     14514     14515     14514     14516     14514     14517     14517     14518
     14517     14519     14519     14520     14519     14521     14521     14522
     14521     14523     14521     14524     14524     14525     14524     14526
     14524     14527     14527     14528     14527     14529     14527     14530
     14530     14531     14530     14532     14530     14533     14533     14534
     14533     14535     14533     14536     14536     14537     14536     14538
     14536     14539     14539     14540     14539     14541     14539     14542
     14542     14543     14542     14544     14542     14545     14546     14547
     14546     14548     14546     14549     14546     14550     14550     14551
     14550     14552     14550     14553     14553     14554     14553     14555
     14553     14560     14560     14556     14556     14559     14556     14557
     14556     14558     14561     14562     14561     14563     14561     14564
     14561     14559     14564     14565     14564     14572     14564     14566
     14572     14573     14572     14574     14572     14575     14566     14567
     14567     14569     14567     14568     14569     14570     14569     14571
     14569     14581     14581     14582     14581     14583     14581     14584
     14584     14585     14584     14586     14584     14587     14587     14588
     14587     14589     14587     14590     14590     14591     14590     14592
     14590     14593     14593     14594     14593     14595     14593     14596
     14596     14597     14596     14598     14596     14599     14599     14600
     14599     14601     14601     14602     14601     14603     14603     14604
     14603     14605     14603     14606     14606     14607     14606     14608
     14606     14609     14609     14610     14609     14611     14609     14612
     14612     14613     14612     14614     14612     14615     14615     14616
     14615     14617     14615     14618     14618     14619     14618     14620
     14618     14621     14621     14622     14621     14623     14621     14624
     14624     14625     14624     14626     14624     14627     14575     14576
     14576     14578     14576     14577     14578     14579     14578     14580
     14578     14628     14628     14629     14628     14630     14628     14631
     14631     14632     14631     14633     14631     14634     14634     14635
     14634     14636     14634     14637     14637     14638     14637     14639
     14637     14640     14640     14641     14640     14642     14640     14643
     14643     14644     14643     14645     14643     14646     14646     14647
     14646     14648     14648     14649     14648     14650     14650     14651
     14650     14652     14650     14653     14653     14654     14653     14655
     14653     14656     14656     14657     14656     14658     14656     14659
     14659     14660     14659     14661     14659     14662     14662     14663
     14662     14664     14662     14665     14665     14666     14665     14667
     14665     14668     14668     14669     14668     14670     14668     14671
     14671     14672     14671     14673     14671     14674     14675     14679
     14675     14683     14675     14687     14679     14680     14679     14681
     14679     14682     14683     14684     14683     14685     14683     14686
     14687     14688     14687     14689     14687     14690     14675     14676
     14676     14677     14676     14678     14676     14691     14691     14692
     14691     14693     14691     14697     14698     14699     14697     14694
     14694     14698     14694     14695     14694     14696     14699     14700
     14699     14701     14699     14702     14702     14703     14702     14710
     14702     14704     14710     14711     14710     14712     14710     14713
     14704     14705     14705     14707     14705     14706     14707     14708
     14707     14709     14707     14719     14719     14720     14719     14721
     14719     14722     14722     14723     14722     14724     14722     14725
     14725     14726     14725     14727     14725     14728     14728     14729
     14728     14730     14728     14731     14731     14732     14731     14733
     14731     14734     14734     14735     14734     14736     14734     14737
     14737     14738     14737     14739     14739     14740     14739     14741
     14741     14742     14741     14743     14741     14744     14744     14745
     14744     14746     14744     14747     14747     14748     14747     14749
     14747     14750     14750     14751     14750     14752     14750     14753
     14753     14754     14753     14755     14753     14756     14756     14757
     14756     14758     14756     14759     14759     14760     14759     14761
     14759     14762     14762     14763     14762     14764     14762     14765
     14713     14714     14714     14716     14714     14715     14716     14717
     14716     14718     14716     14766     14766     14767     14766     14768
     14766     14769     14769     14770     14769     14771     14769     14772
     14772     14773     14772     14774     14772     14775     14775     14776
     14775     14777     14775     14778     14778     14779     14778     14780
     14778     14781     14781     14782     14781     14783     14781     14784
     14784     14785     14784     14786     14786     14787     14786     14788
     14788     14789     14788     14790     14788     14791     14791     14792
     14791     14793     14791     14794     14794     14795     14794     14796
     14794     14797     14797     14798     14797     14799     14797     14800
     14800     14801     14800     14802     14800     14803     14803     14804
     14803     14805     14803     14806     14806     14807     14806     14808
     14806     14809     14809     14810     14809     14811     14809     14812
     14813     14814     14813     14815     14813     14816     14813     14817
     14817     14818     14817     14819     14817     14820     14820     14821
     14820     14822     14820     14827     14827     14823     14823     14826
     14823     14824     14823     14825     14828     14829     14828     14830
     14828     14831     14828     14826     14831     14832     14831     14839
     14831     14833     14839     14840     14839     14841     14839     14842
     14833     14834     14834     14836     14834     14835     14836     14837
     14836     14838     14836     14848     14848     14849     14848     14850
     14848     14851     14851     14852     14851     14853     14851     14854
     14854     14855     14854     14856     14854     14857     14857     14858
     14857     14859     14857     14860     14860     14861     14860     14862
     14860     14863     14863     14864     14863     14865     14863     14866
     14866     14867     14866     14868     14868     14869     14868     14870
     14870     14871     14870     14872     14870     14873     14873     14874
     14873     14875     14873     14876     14876     14877     14876     14878
     14876     14879     14879     14880     14879     14881     14879     14882
     14882     14883     14882     14884     14882     14885     14885     14886
     14885     14887     14885     14888     14888     14889     14888     14890
     14888     14891     14891     14892     14891     14893     14891     14894
     14842     14843     14843     14845     14843     14844     14845     14846
     14845     14847     14845     14895     14895     14896     14895     14897
     14895     14898     14898     14899     14898     14900     14898     14901
     14901     14902     14901     14903     14901     14904     14904     14905
     14904     14906     14904     14907     14907     14908     14907     14909
     14907     14910     14910     14911     14910     14912     14910     14913
     14913     14914     14913     14915     14915     14916     14915     14917
     14917     14918     14917     14919     14917     14920     14920     14921
     14920     14922     14920     14923     14923     14924     14923     14925
     14923     14926     14926     14927     14926     14928     14926     14929
     14929     14930     14929     14931     14929     14932     14932     14933
     14932     14934     14932     14935     14935     14936     14935     14937
     14935     14938     14938     14939     14938     14940     14938     14941
     14942     14943     14942     14944     14942     14945     14942     14946
     14946     14947     14946     14948     14946     14949     14949     14950
     14949     14951     14949     14956     14956     14952     14952     14955
     14952     14953     14952     14954     14957     14958     14957     14959
     14957     14960     14957     14955     14960     14961     14960     14968
     14960     14962     14968     14969     14968     14970     14968     14971
     14962     14963     14963     14965     14963     14964     14965     14966
     14965     14967     14965     14977     14977     14978     14977     14979
     14977     14980     14980     14981     14980     14982     14980     14983
     14983     14984     14983     14985     14983     14986     14986     14987
     14986     14988     14986     14989     14989     14990     14989     14991
     14989     14992     14992     14993     14992     14994     14992     14995
     14995     14996     14995     14997     14997     14998     14997     14999
     14999     15000     14999     15001     14999     15002     15002     15003
     15002     15004     15002     15005     15005     15006     15005     15007
     15005     15008     15008     15009     15008     15010     15008     15011
     15011     15012     15011     15013     15011     15014     15014     15015
     15014     15016     15014     15017     15017     15018     15017     15019
     15017     15020     15020     15021     15020     15022     15020     15023
     14971     14972     14972     14974     14972     14973     14974     14975
     14974     14976     14974     15024     15024     15025     15024     15026
     15024     15027     15027     15028     15027     15029     15027     15030
     15030     15031     15030     15032     15030     15033     15033     15034
     15033     15035     15033     15036     15036     15037     15036     15038
     15036     15039     15039     15040     15039     15041     15039     15042
     15042     15043     15042     15044     15044     15045     15044     15046
     15046     15047     15046     15048     15046     15049     15049     15050
     15049     15051     15049     15052     15052     15053     15052     15054
     15052     15055     15055     15056     15055     15057     15055     15058
     15058     15059     15058     15060     15058     15061     15061     15062
     15061     15063     15061     15064     15064     15065     15064     15066
     15064     15067     15067     15068     15067     15069     15067     15070
     15071     15072     15071     15073     15071     15074     15071     15075
     15075     15076     15075     15077     15075     15078     15078     15079
     15078     15080     15078     15085     15085     15081     15081     15084
     15081     15082     15081     15083     15086     15087     15086     15088
     15086     15089     15086     15084     15089     15090     15089     15097
     15089     15091     15097     15098     15097     15099     15097     15100
     15091     15092     15092     15094     15092     15093     15094     15095
     15094     15096     15094     15106     15106     15107     15106     15108
     15106     15109     15109     15110     15109     15111     15109     15112
     15112     15113     15112     15114     15112     15115     15115     15116
     15115     15117     15115     15118     15118     15119     15118     15120
     15118     15121     15121     15122     15121     15123     15121     15124
     15124     15125     15124     15126     15126     15127     15126     15128
     15128     15129     15128     15130     15128     15131     15131     15132
     15131     15133     15131     15134     15134     15135     15134     15136
     15134     15137     15137     15138     15137     15139     15137     15140
     15140     15141     15140     15142     15140     15143     15143     15144
     15143     15145     15143     15146     15146     15147     15146     15148
     15146     15149     15149     15150     15149     15151     15149     15152
     15100     15101     15101     15103     15101     15102     15103     15104
     15103     15105     15103     15153     15153     15154     15153     15155
     15153     15156     15156     15157     15156     15158     15156     15159
     15159     15160     15159     15161     15159     15162     15162     15163
     15162     15164     15162     15165     15165     15166     15165     15167
     15165     15168     15168     15169     15168     15170     15168     15171
     15171     15172     15171     15173     15173     15174     15173     15175
     15175     15176     15175     15177     15175     15178     15178     15179
     15178     15180     15178     15181     15181     15182     15181     15183
     15181     15184     15184     15185     15184     15186     15184     15187
     15187     15188     15187     15189     15187     15190     15190     15191
     15190     15192     15190     15193     15193     15194     15193     15195
     15193     15196     15196     15197     15196     15198     15196     15199
     15275     15276     15275     15277     15275     15278     15275     15272
     15272     15273     15272     15274     15272     15269     15269     15270
     15269     15271     15269     15266     15266     15267     15266     15268
     15266     15263     15263     15264     15263     15265     15263     15260
     15260     15261     15260     15262     15260     15257     15257     15258
     15257     15259     15257     15254     15254     15255     15254     15256
     15254     15251     15251     15252     15251     15253     15251     15248
     15248     15249     15248     15250     15248     15245     15245     15246
     15245     15247     15245     15242     15242     15243     15242     15244
     15242     15239     15239     15240     15239     15241     15239     15237
     15237     15238     15235     15236     15235     15231     15231     15232
     15231     15233     15233     15234     15231     15229     15229     15230
     15229     15224     15224     15225     15224     15226     15224     15222
     15222     15219     15223     15219     15220     15219     15221     15219
     15223     15216     15216     15217     15216     15218     15216     15213
     15213     15214     15213     15215     15213     15200     15200     15209
     15200     15205     15200     15201     15209     15210     15209     15211
     15209     15212     15205     15206     15205     15207     15205     15208
     15201     15202     15201     15203     15201     15204     15229     15227
     15227     15228     15227     15279     15279     15281     15281     15282
     15281     15283     15281     15284     15284     15285     15284     15286
     15284     15287     15287     15288     15287     15289     15287     15290
     15290     15291     15290     15292     15290     15293     15293     15294
     15293     15295     15293     15296     15296     15297     15296     15298
     15296     15299     15299     15300     15299     15301     15299     15302
     15302     15303     15302     15304     15302     15305     15305     15306
     15305     15307     15305     15308     15308     15309     15308     15310
     15308     15311     15311     15312     15311     15313     15311     15314
     15314     15315     15314     15316     15314     15317     15317     15318
     15317     15319     15317     15320     15320     15321     15320     15322
     15320     15323     15323     15324     15323     15325     15323     15326
     15326     15327     15326     15328     15326     15329     15329     15330
     15329     15331     15329     15332     15332     15333     15332     15334
     15332     15335     15335     15336     15335     15337     15335     15338
     15338     15339     15338     15340     15338     15341     15341     15342
     15341     15343     15341     15344     15344     15345     15344     15346
     15344     15347     15235     15237     15279     15280     15348     15352
     15348     15356     15348     15360     15352     15353     15352     15354
     15352     15355     15356     15357     15356     15358     15356     15359
     15360     15361     15360     15362     15360     15363     15348     15349
     15349     15350     15349     15351     15349     15364     15364     15365
     15364     15366     15364     15370     15371     15372     15370     15367
     15367     15371     15367     15368     15367     15369     15372     15373
     15372     15374     15372     15375     15375     15376     15375     15383
     15375     15377     15383     15384     15383     15385     15383     15386
     15377     15378     15378     15380     15378     15379     15380     15381
     15380     15382     15380     15392     15392     15393     15392     15394
     15392     15395     15395     15396     15395     15397     15395     15398
     15398     15399     15398     15400     15398     15401     15401     15402
     15401     15403     15401     15404     15404     15405     15404     15406
     15404     15407     15407     15408     15407     15409     15407     15410
     15410     15411     15410     15412     15412     15413     15412     15414
     15414     15415     15414     15416     15414     15417     15417     15418
     15417     15419     15417     15420     15420     15421     15420     15422
     15420     15423     15423     15424     15423     15425     15423     15426
     15426     15427     15426     15428     15426     15429     15429     15430
     15429     15431     15429     15432     15432     15433     15432     15434
     15432     15435     15435     15436     15435     15437     15435     15438
     15386     15387     15387     15389     15387     15388     15389     15390
     15389     15391     15389     15439     15439     15440     15439     15441
     15439     15442     15442     15443     15442     15444     15442     15445
     15445     15446     15445     15447     15445     15448     15448     15449
     15448     15450     15448     15451     15451     15452     15451     15453
     15451     15454     15454     15455     15454     15456     15454     15457
     15457     15458     15457     15459     15459     15460     15459     15461
     15461     15462     15461     15463     15461     15464     15464     15465
     15464     15466     15464     15467     15467     15468     15467     15469
     15467     15470     15470     15471     15470     15472     15470     15473
     15473     15474     15473     15475     15473     15476     15476     15477
     15476     15478     15476     15479     15479     15480     15479     15481
     15479     15482     15482     15483     15482     15484     15482     15485
     15486     15487     15486     15488     15486     15489     15486     15490
     15490     15491     15490     15492     15490     15493     15493     15494
     15493     15495     15493     15500     15500     15496     15496     15499
     15496     15497     15496     15498     15501     15502     15501     15503
     15501     15504     15501     15499     15504     15505     15504     15512
     15504     15506     15512     15513     15512     15514     15512     15515
     15506     15507     15507     15509     15507     15508     15509     15510
     15509     15511     15509     15521     15521     15522     15521     15523
     15521     15524     15524     15525     15524     15526     15524     15527
     15527     15528     15527     15529     15527     15530     15530     15531
     15530     15532     15530     15533     15533     15534     15533     15535
     15533     15536     15536     15537     15536     15538     15536     15539
     15539     15540     15539     15541     15541     15542     15541     15543
     15543     15544     15543     15545     15543     15546     15546     15547
     15546     15548     15546     15549     15549     15550     15549     15551
     15549     15552     15552     15553     15552     15554     15552     15555
     15555     15556     15555     15557     15555     15558     15558     15559
     15558     15560     15558     15561     15561     15562     15561     15563
     15561     15564     15564     15565     15564     15566     15564     15567
     15515     15516     15516     15518     15516     15517     15518     15519
     15518     15520     15518     15568     15568     15569     15568     15570
     15568     15571     15571     15572     15571     15573     15571     15574
     15574     15575     15574     15576     15574     15577     15577     15578
     15577     15579     15577     15580     15580     15581     15580     15582
     15580     15583     15583     15584     15583     15585     15583     15586
     15586     15587     15586     15588     15588     15589     15588     15590
     15590     15591     15590     15592     15590     15593     15593     15594
     15593     15595     15593     15596     15596     15597     15596     15598
     15596     15599     15599     15600     15599     15601     15599     15602
     15602     15603     15602     15604     15602     15605     15605     15606
     15605     15607     15605     15608     15608     15609     15608     15610
     15608     15611     15611     15612     15611     15613     15611     15614
     15690     15691     15690     15692     15690     15693     15690     15687
     15687     15688     15687     15689     15687     15684     15684     15685
     15684     15686     15684     15681     15681     15682     15681     15683
     15681     15678     15678     15679     15678     15680     15678     15675
     15675     15676     15675     15677     15675     15672     15672     15673
     15672     15674     15672     15669     15669     15670     15669     15671
     15669     15666     15666     15667     15666     15668     15666     15663
     15663     15664     15663     15665     15663     15660     15660     15661
     15660     15662     15660     15657     15657     15658     15657     15659
     15657     15654     15654     15655     15654     15656     15654     15652
     15652     15653     15650     15651     15650     15646     15646     15647
     15646     15648     15648     15649     15646     15644     15644     15645
     15644     15639     15639     15640     15639     15641     15639     15637
     15637     15634     15638     15634     15635     15634     15636     15634
     15638     15631     15631     15632     15631     15633     15631     15628
     15628     15629     15628     15630     15628     15615     15615     15624
     15615     15620     15615     15616     15624     15625     15624     15626
     15624     15627     15620     15621     15620     15622     15620     15623
     15616     15617     15616     15618     15616     15619     15644     15642
     15642     15643     15642     15694     15694     15696     15696     15697
     15696     15698     15696     15699     15699     15700     15699     15701
     15699     15702     15702     15703     15702     15704     15702     15705
     15705     15706     15705     15707     15705     15708     15708     15709
     15708     15710     15708     15711     15711     15712     15711     15713
     15711     15714     15714     15715     15714     15716     15714     15717
     15717     15718     15717     15719     15717     15720     15720     15721
     15720     15722     15720     15723     15723     15724     15723     15725
     15723     15726     15726     15727     15726     15728     15726     15729
     15729     15730     15729     15731     15729     15732     15732     15733
     15732     15734     15732     15735     15735     15736     15735     15737
     15735     15738     15738     15739     15738     15740     15738     15741
     15741     15742     15741     15743     15741     15744     15744     15745
     15744     15746     15744     15747     15747     15748     15747     15749
     15747     15750     15750     15751     15750     15752     15750     15753
     15753     15754     15753     15755     15753     15756     15756     15757
     15756     15758     15756     15759     15759     15760     15759     15761
     15759     15762     15650     15652     15694     15695     15838     15839
     15838     15840     15838     15841     15838     15835     15835     15836
     15835     15837     15835     15832     15832     15833     15832     15834
     15832     15829     15829     15830     15829     15831     15829     15826
     15826     15827     15826     15828     15826     15823     15823     15824
     15823     15825     15823     15820     15820     15821     15820     15822
     15820     15817     15817     15818     15817     15819     15817     15814
     15814     15815     15814     15816     15814     15811     15811     15812
     15811     15813     15811     15808     15808     15809     15808     15810
     15808     15805     15805     15806     15805     15807     15805     15802
     15802     15803     15802     15804     15802     15800     15800     15801
     15798     15799     15798     15794     15794     15795     15794     15796
     15796     15797     15794     15792     15792     15793     15792     15787
     15787     15788     15787     15789     15787     15785     15785     15782
     15786     15782     15783     15782     15784     15782     15786     15779
     15779     15780     15779     15781     15779     15776     15776     15777
     15776     15778     15776     15763     15763     15772     15763     15768
     15763     15764     15772     15773     15772     15774     15772     15775
     15768     15769     15768     15770     15768     15771     15764     15765
     15764     15766     15764     15767     15792     15790     15790     15791
     15790     15842     15842     15844     15844     15845     15844     15846
     15844     15847     15847     15848     15847     15849     15847     15850
     15850     15851     15850     15852     15850     15853     15853     15854
     15853     15855     15853     15856     15856     15857     15856     15858
     15856     15859     15859     15860     15859     15861     15859     15862
     15862     15863     15862     15864     15862     15865     15865     15866
     15865     15867     15865     15868     15868     15869     15868     15870
     15868     15871     15871     15872     15871     15873     15871     15874
     15874     15875     15874     15876     15874     15877     15877     15878
     15877     15879     15877     15880     15880     15881     15880     15882
     15880     15883     15883     15884     15883     15885     15883     15886
     15886     15887     15886     15888     15886     15889     15889     15890
     15889     15891     15889     15892     15892     15893     15892     15894
     15892     15895     15895     15896     15895     15897     15895     15898
     15898     15899     15898     15900     15898     15901     15901     15902
     15901     15903     15901     15904     15904     15905     15904     15906
     15904     15907     15907     15908     15907     15909     15907     15910
     15798     15800     15842     15843     15911     15915     15911     15919
     15911     15923     15915     15916     15915     15917     15915     15918
     15919     15920     15919     15921     15919     15922     15923     15924
     15923     15925     15923     15926     15911     15912     15912     15913
     15912     15914     15912     15927     15927     15928     15927     15929
     15927     15933     15934     15935     15933     15930     15930     15934
     15930     15931     15930     15932     15935     15936     15935     15937
     15935     15938     15938     15939     15938     15946     15938     15940
     15946     15947     15946     15948     15946     15949     15940     15941
     15941     15943     15941     15942     15943     15944     15943     15945
     15943     15955     15955     15956     15955     15957     15955     15958
     15958     15959     15958     15960     15958     15961     15961     15962
     15961     15963     15961     15964     15964     15965     15964     15966
     15964     15967     15967     15968     15967     15969     15967     15970
     15970     15971     15970     15972     15970     15973     15973     15974
     15973     15975     15975     15976     15975     15977     15977     15978
     15977     15979     15977     15980     15980     15981     15980     15982
     15980     15983     15983     15984     15983     15985     15983     15986
     15986     15987     15986     15988     15986     15989     15989     15990
     15989     15991     15989     15992     15992     15993     15992     15994
     15992     15995     15995     15996     15995     15997     15995     15998
     15998     15999     15998     16000     15998     16001     15949     15950
     15950     15952     15950     15951     15952     15953     15952     15954
     15952     16002     16002     16003     16002     16004     16002     16005
     16005     16006     16005     16007     16005     16008     16008     16009
     16008     16010     16008     16011     16011     16012     16011     16013
     16011     16014     16014     16015     16014     16016     16014     16017
     16017     16018     16017     16019     16017     16020     16020     16021
     16020     16022     16022     16023     16022     16024     16024     16025
     16024     16026     16024     16027     16027     16028     16027     16029
     16027     16030     16030     16031     16030     16032     16030     16033
     16033     16034     16033     16035     16033     16036     16036     16037
     16036     16038     16036     16039     16039     16040     16039     16041
     16039     16042     16042     16043     16042     16044     16042     16045
     16045     16046     16045     16047     16045     16048     16049     16053
     16049     16057     16049     16061     16053     16054     16053     16055
     16053     16056     16057     16058     16057     16059     16057     16060
     16061     16062     16061     16063     16061     16064     16049     16050
     16050     16051     16050     16052     16050     16065     16065     16066
     16065     16067     16065     16071     16072     16073     16071     16068
     16068     16072     16068     16069     16068     16070     16073     16074
     16073     16075     16073     16076     16076     16077     16076     16084
     16076     16078     16084     16085     16084     16086     16084     16087
     16078     16079     16079     16081     16079     16080     16081     16082
     16081     16083     16081     16093     16093     16094     16093     16095
     16093     16096     16096     16097     16096     16098     16096     16099
     16099     16100     16099     16101     16099     16102     16102     16103
     16102     16104     16102     16105     16105     16106     16105     16107
     16105     16108     16108     16109     16108     16110     16108     16111
     16111     16112     16111     16113     16113     16114     16113     16115
     16115     16116     16115     16117     16115     16118     16118     16119
     16118     16120     16118     16121     16121     16122     16121     16123
     16121     16124     16124     16125     16124     16126     16124     16127
     16127     16128     16127     16129     16127     16130     16130     16131
     16130     16132     16130     16133     16133     16134     16133     16135
     16133     16136     16136     16137     16136     16138     16136     16139
     16087     16088     16088     16090     16088     16089     16090     16091
     16090     16092     16090     16140     16140     16141     16140     16142
     16140     16143     16143     16144     16143     16145     16143     16146
     16146     16147     16146     16148     16146     16149     16149     16150
     16149     16151     16149     16152     16152     16153     16152     16154
     16152     16155     16155     16156     16155     16157     16155     16158
     16158     16159     16158     16160     16160     16161     16160     16162
     16162     16163     16162     16164     16162     16165     16165     16166
     16165     16167     16165     16168     16168     16169     16168     16170
     16168     16171     16171     16172     16171     16173     16171     16174
     16174     16175     16174     16176     16174     16177     16177     16178
     16177     16179     16177     16180     16180     16181     16180     16182
     16180     16183     16183     16184     16183     16185     16183     16186
     16187     16188     16187     16189     16187     16190     16187     16191
     16191     16192     16191     16193     16191     16194     16194     16195
     16194     16196     16194     16201     16201     16197     16197     16200
     16197     16198     16197     16199     16202     16203     16202     16204
     16202     16205     16202     16200     16205     16206     16205     16213
     16205     16207     16213     16214     16213     16215     16213     16216
     16207     16208     16208     16210     16208     16209     16210     16211
     16210     16212     16210     16222     16222     16223     16222     16224
     16222     16225     16225     16226     16225     16227     16225     16228
     16228     16229     16228     16230     16228     16231     16231     16232
     16231     16233     16231     16234     16234     16235     16234     16236
     16234     16237     16237     16238     16237     16239     16237     16240
     16240     16241     16240     16242     16242     16243     16242     16244
     16244     16245     16244     16246     16244     16247     16247     16248
     16247     16249     16247     16250     16250     16251     16250     16252
     16250     16253     16253     16254     16253     16255     16253     16256
     16256     16257     16256     16258     16256     16259     16259     16260
     16259     16261     16259     16262     16262     16263     16262     16264
     16262     16265     16265     16266     16265     16267     16265     16268
     16216     16217     16217     16219     16217     16218     16219     16220
     16219     16221     16219     16269     16269     16270     16269     16271
     16269     16272     16272     16273     16272     16274     16272     16275
     16275     16276     16275     16277     16275     16278     16278     16279
     16278     16280     16278     16281     16281     16282     16281     16283
     16281     16284     16284     16285     16284     16286     16284     16287
     16287     16288     16287     16289     16289     16290     16289     16291
     16291     16292     16291     16293     16291     16294     16294     16295
     16294     16296     16294     16297     16297     16298     16297     16299
     16297     16300     16300     16301     16300     16302     16300     16303
     16303     16304     16303     16305     16303     16306     16306     16307
     16306     16308     16306     16309     16309     16310     16309     16311
     16309     16312     16312     16313     16312     16314     16312     16315
     16391     16392     16391     16393     16391     16394     16391     16388
     16388     16389     16388     16390     16388     16385     16385     16386
     16385     16387     16385     16382     16382     16383     16382     16384
     16382     16379     16379     16380     16379     16381     16379     16376
     16376     16377     16376     16378     16376     16373     16373     16374
     16373     16375     16373     16370     16370     16371     16370     16372
     16370     16367     16367     16368     16367     16369     16367     16364
     16364     16365     16364     16366     16364     16361     16361     16362
     16361     16363     16361     16358     16358     16359     16358     16360
     16358     16355     16355     16356     16355     16357     16355     16353
     16353     16354     16351     16352     16351     16347     16347     16348
     16347     16349     16349     16350     16347     16345     16345     16346
     16345     16340     16340     16341     16340     16342     16340     16338
     16338     16335     16339     16335     16336     16335     16337     16335
     16339     16332     16332     16333     16332     16334     16332     16329
     16329     16330     16329     16331     16329     16316     16316     16325
     16316     16321     16316     16317     16325     16326     16325     16327
     16325     16328     16321     16322     16321     16323     16321     16324
     16317     16318     16317     16319     16317     16320     16345     16343
     16343     16344     16343     16395     16395     16397     16397     16398
     16397     16399     16397     16400     16400     16401     16400     16402
     16400     16403     16403     16404     16403     16405     16403     16406
     16406     16407     16406     16408     16406     16409     16409     16410
     16409     16411     16409     16412     16412     16413     16412     16414
     16412     16415     16415     16416     16415     16417     16415     16418
     16418     16419     16418     16420     16418     16421     16421     16422
     16421     16423     16421     16424     16424     16425     16424     16426
     16424     16427     16427     16428     16427     16429     16427     16430
     16430     16431     16430     16432     16430     16433     16433     16434
     16433     16435     16433     16436     16436     16437     16436     16438
     16436     16439     16439     16440     16439     16441     16439     16442
     16442     16443     16442     16444     16442     16445     16445     16446
     16445     16447     16445     16448     16448     16449     16448     16450
     16448     16451     16451     16452     16451     16453     16451     16454
     16454     16455     16454     16456     16454     16457     16457     16458
     16457     16459     16457     16460     16460     16461     16460     16462
     16460     16463     16351     16353     16395     16396     16464     16465
     16464     16466     16464     16467     16464     16468     16468     16469
     16468     16470     16468     16471     16471     16472     16471     16473
     16471     16478     16478     16474     16474     16477     16474     16475
     16474     16476     16479     16480     16479     16481     16479     16482
     16479     16477     16482     16483     16482     16490     16482     16484
     16490     16491     16490     16492     16490     16493     16484     16485
     16485     16487     16485     16486     16487     16488     16487     16489
     16487     16499     16499     16500     16499     16501     16499     16502
     16502     16503     16502     16504     16502     16505     16505     16506
     16505     16507     16505     16508     16508     16509     16508     16510
     16508     16511     16511     16512     16511     16513     16511     16514
     16514     16515     16514     16516     16514     16517     16517     16518
     16517     16519     16519     16520     16519     16521     16521     16522
     16521     16523     16521     16524     16524     16525     16524     16526
     16524     16527     16527     16528     16527     16529     16527     16530
     16530     16531     16530     16532     16530     16533     16533     16534
     16533     16535     16533     16536     16536     16537     16536     16538
     16536     16539     16539     16540     16539     16541     16539     16542
     16542     16543     16542     16544     16542     16545     16493     16494
     16494     16496     16494     16495     16496     16497     16496     16498
     16496     16546     16546     16547     16546     16548     16546     16549
     16549     16550     16549     16551     16549     16552     16552     16553
     16552     16554     16552     16555     16555     16556     16555     16557
     16555     16558     16558     16559     16558     16560     16558     16561
     16561     16562     16561     16563     16561     16564     16564     16565
     16564     16566     16566     16567     16566     16568     16568     16569
     16568     16570     16568     16571     16571     16572     16571     16573
     16571     16574     16574     16575     16574     16576     16574     16577
     16577     16578     16577     16579     16577     16580     16580     16581
     16580     16582     16580     16583     16583     16584     16583     16585
     16583     16586     16586     16587     16586     16588     16586     16589
     16589     16590     16589     16591     16589     16592     16668     16669
     16668     16670     16668     16671     16668     16665     16665     16666
     16665     16667     16665     16662     16662     16663     16662     16664
     16662     16659     16659     16660     16659     16661     16659     16656
     16656     16657     16656     16658     16656     16653     16653     16654
     16653     16655     16653     16650     16650     16651     16650     16652
     16650     16647     16647     16648     16647     16649     16647     16644
     16644     16645     16644     16646     16644     16641     16641     16642
     16641     16643     16641     16638     16638     16639     16638     16640
     16638     16635     16635     16636     16635     16637     16635     16632
     16632     16633     16632     16634     16632     16630     16630     16631
     16628     16629     16628     16624     16624     16625     16624     16626
     16626     16627     16624     16622     16622     16623     16622     16617
     16617     16618     16617     16619     16617     16615     16615     16612
     16616     16612     16613     16612     16614     16612     16616     16609
     16609     16610     16609     16611     16609     16606     16606     16607
     16606     16608     16606     16593     16593     16602     16593     16598
     16593     16594     16602     16603     16602     16604     16602     16605
     16598     16599     16598     16600     16598     16601     16594     16595
     16594     16596     16594     16597     16622     16620     16620     16621
     16620     16672     16672     16674     16674     16675     16674     16676
     16674     16677     16677     16678     16677     16679     16677     16680
     16680     16681     16680     16682     16680     16683     16683     16684
     16683     16685     16683     16686     16686     16687     16686     16688
     16686     16689     16689     16690     16689     16691     16689     16692
     16692     16693     16692     16694     16692     16695     16695     16696
     16695     16697     16695     16698     16698     16699     16698     16700
     16698     16701     16701     16702     16701     16703     16701     16704
     16704     16705     16704     16706     16704     16707     16707     16708
     16707     16709     16707     16710     16710     16711     16710     16712
     16710     16713     16713     16714     16713     16715     16713     16716
     16716     16717     16716     16718     16716     16719     16719     16720
     16719     16721     16719     16722     16722     16723     16722     16724
     16722     16725     16725     16726     16725     16727     16725     16728
     16728     16729     16728     16730     16728     16731     16731     16732
     16731     16733     16731     16734     16734     16735     16734     16736
     16734     16737     16737     16738     16737     16739     16737     16740
     16628     16630     16672     16673     16741     16745     16741     16749
     16741     16753     16745     16746     16745     16747     16745     16748
     16749     16750     16749     16751     16749     16752     16753     16754
     16753     16755     16753     16756     16741     16742     16742     16743
     16742     16744     16742     16757     16757     16758     16757     16759
     16757     16763     16764     16765     16763     16760     16760     16764
     16760     16761     16760     16762     16765     16766     16765     16767
     16765     16768     16768     16769     16768     16776     16768     16770
     16776     16777     16776     16778     16776     16779     16770     16771
     16771     16773     16771     16772     16773     16774     16773     16775
     16773     16785     16785     16786     16785     16787     16785     16788
     16788     16789     16788     16790     16788     16791     16791     16792
     16791     16793     16791     16794     16794     16795     16794     16796
     16794     16797     16797     16798     16797     16799     16797     16800
     16800     16801     16800     16802     16800     16803     16803     16804
     16803     16805     16805     16806     16805     16807     16807     16808
     16807     16809     16807     16810     16810     16811     16810     16812
     16810     16813     16813     16814     16813     16815     16813     16816
     16816     16817     16816     16818     16816     16819     16819     16820
     16819     16821     16819     16822     16822     16823     16822     16824
     16822     16825     16825     16826     16825     16827     16825     16828
     16828     16829     16828     16830     16828     16831     16779     16780
     16780     16782     16780     16781     16782     16783     16782     16784
     16782     16832     16832     16833     16832     16834     16832     16835
     16835     16836     16835     16837     16835     16838     16838     16839
     16838     16840     16838     16841     16841     16842     16841     16843
     16841     16844     16844     16845     16844     16846     16844     16847
     16847     16848     16847     16849     16847     16850     16850     16851
     16850     16852     16852     16853     16852     16854     16854     16855
     16854     16856     16854     16857     16857     16858     16857     16859
     16857     16860     16860     16861     16860     16862     16860     16863
     16863     16864     16863     16865     16863     16866     16866     16867
     16866     16868     16866     16869     16869     16870     16869     16871
     16869     16872     16872     16873     16872     16874     16872     16875
     16875     16876     16875     16877     16875     16878     16879     16883
     16879     16887     16879     16891     16883     16884     16883     16885
     16883     16886     16887     16888     16887     16889     16887     16890
     16891     16892     16891     16893     16891     16894     16879     16880
     16880     16881     16880     16882     16880     16895     16895     16896
     16895     16897     16895     16901     16902     16903     16901     16898
     16898     16902     16898     16899     16898     16900     16903     16904
     16903     16905     16903     16906     16906     16907     16906     16914
     16906     16908     16914     16915     16914     16916     16914     16917
     16908     16909     16909     16911     16909     16910     16911     16912
     16911     16913     16911     16923     16923     16924     16923     16925
     16923     16926     16926     16927     16926     16928     16926     16929
     16929     16930     16929     16931     16929     16932     16932     16933
     16932     16934     16932     16935     16935     16936     16935     16937
     16935     16938     16938     16939     16938     16940     16938     16941
     16941     16942     16941     16943     16943     16944     16943     16945
     16945     16946     16945     16947     16945     16948     16948     16949
     16948     16950     16948     16951     16951     16952     16951     16953
     16951     16954     16954     16955     16954     16956     16954     16957
     16957     16958     16957     16959     16957     16960     16960     16961
     16960     16962     16960     16963     16963     16964     16963     16965
     16963     16966     16966     16967     16966     16968     16966     16969
     16917     16918     16918     16920     16918     16919     16920     16921
     16920     16922     16920     16970     16970     16971     16970     16972
     16970     16973     16973     16974     16973     16975     16973     16976
     16976     16977     16976     16978     16976     16979     16979     16980
     16979     16981     16979     16982     16982     16983     16982     16984
     16982     16985     16985     16986     16985     16987     16985     16988
     16988     16989     16988     16990     16990     16991     16990     16992
     16992     16993     16992     16994     16992     16995     16995     16996
     16995     16997     16995     16998     16998     16999     16998     17000
     16998     17001     17001     17002     17001     17003     17001     17004
     17004     17005     17004     17006     17004     17007     17007     17008
     17007     17009     17007     17010     17010     17011     17010     17012
     17010     17013     17013     17014     17013     17015     17013     17016
     17017     17018     17017     17019     17017     17020     17017     17021
     17021     17022     17021     17023     17021     17024     17024     17025
     17024     17026     17024     17031     17031     17027     17027     17030
     17027     17028     17027     17029     17032     17033     17032     17034
     17032     17035     17032     17030     17035     17036     17035     17043
     17035     17037     17043     17044     17043     17045     17043     17046
     17037     17038     17038     17040     17038     17039     17040     17041
     17040     17042     17040     17052     17052     17053     17052     17054
     17052     17055     17055     17056     17055     17057     17055     17058
     17058     17059     17058     17060     17058     17061     17061     17062
     17061     17063     17061     17064     17064     17065     17064     17066
     17064     17067     17067     17068     17067     17069     17067     17070
     17070     17071     17070     17072     17072     17073     17072     17074
     17074     17075     17074     17076     17074     17077     17077     17078
     17077     17079     17077     17080     17080     17081     17080     17082
     17080     17083     17083     17084     17083     17085     17083     17086
     17086     17087     17086     17088     17086     17089     17089     17090
     17089     17091     17089     17092     17092     17093     17092     17094
     17092     17095     17095     17096     17095     17097     17095     17098
     17046     17047     17047     17049     17047     17048     17049     17050
     17049     17051     17049     17099     17099     17100     17099     17101
     17099     17102     17102     17103     17102     17104     17102     17105
     17105     17106     17105     17107     17105     17108     17108     17109
     17108     17110     17108     17111     17111     17112     17111     17113
     17111     17114     17114     17115     17114     17116     17114     17117
     17117     17118     17117     17119     17119     17120     17119     17121
     17121     17122     17121     17123     17121     17124     17124     17125
     17124     17126     17124     17127     17127     17128     17127     17129
     17127     17130     17130     17131     17130     17132     17130     17133
     17133     17134     17133     17135     17133     17136     17136     17137
     17136     17138     17136     17139     17139     17140     17139     17141
     17139     17142     17142     17143     17142     17144     17142     17145
     17146     17148     17146     17147     17148     17149     17146     17192
     17192     17193     17192     17194     17192     17189     17189     17190
     17189     17191     17146     17150     17150     17151     17150     17152
     17150     17153     17153     17184     17184     17189     17184     17185
     17185     17186     17185     17187     17185     17188     17153     17154
     17154     17155     17154     17156     17156     17157     17156     17158
     17156     17159     17159     17160     17159     17182     17182     17183
     17182     17184     17159     17161     17161     17162     17161     17171
     17171     17176     17176     17177     17176     17178     17176     17179
     17179     17180     17179     17181     17179     17182     17171     17172
     17172     17173     17172     17174     17172     17175     17161     17163
     17163     17164     17163     17165     17163     17166     17166     17167
     17166     17168     17166     17169     17169     17170     17169     17171
     17169     17195     17195     17196     17195     17197     17197     17198
     17197     17199     17197     17200     17195     17201     17201     17202
     17201     17203     17201     17204     17204     17205     17204     17206
     17204     17207     17207     17208     17207     17209     17207     17210
     17210     17211     17210     17212     17212     17213     17212     17214
     17212     17215     17210     17216     17216     17217     17216     17218
     17216     17219     17295     17296     17295     17297     17295     17298
     17295     17292     17292     17293     17292     17294     17292     17289
     17289     17290     17289     17291     17289     17286     17286     17287
     17286     17288     17286     17283     17283     17284     17283     17285
     17283     17280     17280     17281     17280     17282     17280     17277
     17277     17278     17277     17279     17277     17274     17274     17275
     17274     17276     17274     17271     17271     17272     17271     17273
     17271     17268     17268     17269     17268     17270     17268     17265
     17265     17266     17265     17267     17265     17262     17262     17263
     17262     17264     17262     17259     17259     17260     17259     17261
     17259     17257     17257     17258     17255     17256     17255     17251
     17251     17252     17251     17253     17253     17254     17251     17249
     17249     17250     17249     17244     17244     17245     17244     17246
     17244     17242     17242     17239     17243     17239     17240     17239
     17241     17239     17243     17236     17236     17237     17236     17238
     17236     17233     17233     17234     17233     17235     17233     17220
     17220     17229     17220     17225     17220     17221     17229     17230
     17229     17231     17229     17232     17225     17226     17225     17227
     17225     17228     17221     17222     17221     17223     17221     17224
     17249     17247     17247     17248     17247     17299     17299     17301
     17301     17302     17301     17303     17301     17304     17304     17305
     17304     17306     17304     17307     17307     17308     17307     17309
     17307     17310     17310     17311     17310     17312     17310     17313
     17313     17314     17313     17315     17313     17316     17316     17317
     17316     17318     17316     17319     17319     17320     17319     17321
     17319     17322     17322     17323     17322     17324     17322     17325
     17325     17326     17325     17327     17325     17328     17328     17329
     17328     17330     17328     17331     17331     17332     17331     17333
     17331     17334     17334     17335     17334     17336     17334     17337
     17337     17338     17337     17339     17337     17340     17340     17341
     17340     17342     17340     17343     17343     17344     17343     17345
     17343     17346     17346     17347     17346     17348     17346     17349
     17349     17350     17349     17351     17349     17352     17352     17353
     17352     17354     17352     17355     17355     17356     17355     17357
     17355     17358     17358     17359     17358     17360     17358     17361
     17361     17362     17361     17363     17361     17364     17364     17365
     17364     17366     17364     17367     17255     17257     17299     17300
     17368     17372     17368     17376     17368     17380     17372     17373
     17372     17374     17372     17375     17376     17377     17376     17378
     17376     17379     17380     17381     17380     17382     17380     17383
     17368     17369     17369     17370     17369     17371     17369     17384
     17384     17385     17384     17386     17384     17390     17391     17392
     17390     17387     17387     17391     17387     17388     17387     17389
     17392     17393     17392     17394     17392     17395     17395     17396
     17395     17403     17395     17397     17403     17404     17403     17405
     17403     17406     17397     17398     17398     17400     17398     17399
     17400     17401     17400     17402     17400     17412     17412     17413
     17412     17414     17412     17415     17415     17416     17415     17417
     17415     17418     17418     17419     17418     17420     17418     17421
     17421     17422     17421     17423     17421     17424     17424     17425
     17424     17426     17424     17427     17427     17428     17427     17429
     17427     17430     17430     17431     17430     17432     17432     17433
     17432     17434     17434     17435     17434     17436     17434     17437
     17437     17438     17437     17439     17437     17440     17440     17441
     17440     17442     17440     17443     17443     17444     17443     17445
     17443     17446     17446     17447     17446     17448     17446     17449
     17449     17450     17449     17451     17449     17452     17452     17453
     17452     17454     17452     17455     17455     17456     17455     17457
     17455     17458     17406     17407     17407     17409     17407     17408
     17409     17410     17409     17411     17409     17459     17459     17460
     17459     17461     17459     17462     17462     17463     17462     17464
     17462     17465     17465     17466     17465     17467     17465     17468
     17468     17469     17468     17470     17468     17471     17471     17472
     17471     17473     17471     17474     17474     17475     17474     17476
     17474     17477     17477     17478     17477     17479     17479     17480
     17479     17481     17481     17482     17481     17483     17481     17484
     17484     17485     17484     17486     17484     17487     17487     17488
     17487     17489     17487     17490     17490     17491     17490     17492
     17490     17493     17493     17494     17493     17495     17493     17496
     17496     17497     17496     17498     17496     17499     17499     17500
     17499     17501     17499     17502     17502     17503     17502     17504
     17502     17505     17581     17582     17581     17583     17581     17584
     17581     17578     17578     17579     17578     17580     17578     17575
     17575     17576     17575     17577     17575     17572     17572     17573
     17572     17574     17572     17569     17569     17570     17569     17571
     17569     17566     17566     17567     17566     17568     17566     17563
     17563     17564     17563     17565     17563     17560     17560     17561
     17560     17562     17560     17557     17557     17558     17557     17559
     17557     17554     17554     17555     17554     17556     17554     17551
     17551     17552     17551     17553     17551     17548     17548     17549
     17548     17550     17548     17545     17545     17546     17545     17547
     17545     17543     17543     17544     17541     17542     17541     17537
     17537     17538     17537     17539     17539     17540     17537     17535
     17535     17536     17535     17530     17530     17531     17530     17532
     17530     17528     17528     17525     17529     17525     17526     17525
     17527     17525     17529     17522     17522     17523     17522     17524
     17522     17519     17519     17520     17519     17521     17519     17506
     17506     17515     17506     17511     17506     17507     17515     17516
     17515     17517     17515     17518     17511     17512     17511     17513
     17511     17514     17507     17508     17507     17509     17507     17510
     17535     17533     17533     17534     17533     17585     17585     17587
     17587     17588     17587     17589     17587     17590     17590     17591
     17590     17592     17590     17593     17593     17594     17593     17595
     17593     17596     17596     17597     17596     17598     17596     17599
     17599     17600     17599     17601     17599     17602     17602     17603
     17602     17604     17602     17605     17605     17606     17605     17607
     17605     17608     17608     17609     17608     17610     17608     17611
     17611     17612     17611     17613     17611     17614     17614     17615
     17614     17616     17614     17617     17617     17618     17617     17619
     17617     17620     17620     17621     17620     17622     17620     17623
     17623     17624     17623     17625     17623     17626     17626     17627
     17626     17628     17626     17629     17629     17630     17629     17631
     17629     17632     17632     17633     17632     17634     17632     17635
     17635     17636     17635     17637     17635     17638     17638     17639
     17638     17640     17638     17641     17641     17642     17641     17643
     17641     17644     17644     17645     17644     17646     17644     17647
     17647     17648     17647     17649     17647     17650     17650     17651
     17650     17652     17650     17653     17541     17543     17585     17586
     17654     17656     17654     17655     17656     17657     17654     17700
     17700     17701     17700     17702     17700     17697     17697     17698
     17697     17699     17654     17658     17658     17659     17658     17660
     17658     17661     17661     17692     17692     17697     17692     17693
     17693     17694     17693     17695     17693     17696     17661     17662
     17662     17663     17662     17664     17664     17665     17664     17666
     17664     17667     17667     17668     17667     17690     17690     17691
     17690     17692     17667     17669     17669     17670     17669     17679
     17679     17684     17684     17685     17684     17686     17684     17687
     17687     17688     17687     17689     17687     17690     17679     17680
     17680     17681     17680     17682     17680     17683     17669     17671
     17671     17672     17671     17673     17671     17674     17674     17675
     17674     17676     17674     17677     17677     17678     17677     17679
     17677     17703     17703     17704     17703     17705     17705     17706
     17705     17707     17705     17708     17703     17709     17709     17710
     17709     17711     17709     17712     17712     17713     17712     17714
     17712     17715     17715     17716     17715     17717     17715     17718
     17718     17719     17718     17720     17720     17721     17720     17722
     17720     17723     17718     17724     17724     17725     17724     17726
     17724     17727     17728     17730     17728     17729     17730     17731
     17728     17774     17774     17775     17774     17776     17774     17771
     17771     17772     17771     17773     17728     17732     17732     17733
     17732     17734     17732     17735     17735     17766     17766     17771
     17766     17767     17767     17768     17767     17769     17767     17770
     17735     17736     17736     17737     17736     17738     17738     17739
     17738     17740     17738     17741     17741     17742     17741     17764
     17764     17765     17764     17766     17741     17743     17743     17744
     17743     17753     17753     17758     17758     17759     17758     17760
     17758     17761     17761     17762     17761     17763     17761     17764
     17753     17754     17754     17755     17754     17756     17754     17757
     17743     17745     17745     17746     17745     17747     17745     17748
     17748     17749     17748     17750     17748     17751     17751     17752
     17751     17753     17751     17777     17777     17778     17777     17779
     17779     17780     17779     17781     17779     17782     17777     17783
     17783     17784     17783     17785     17783     17786     17786     17787
     17786     17788     17786     17789     17789     17790     17789     17791
     17789     17792     17792     17793     17792     17794     17794     17795
     17794     17796     17794     17797     17792     17798     17798     17799
     17798     17800     17798     17801     17802     17806     17802     17810
     17802     17814     17806     17807     17806     17808     17806     17809
     17810     17811     17810     17812     17810     17813     17814     17815
     17814     17816     17814     17817     17802     17803     17803     17804
     17803     17805     17803     17818     17818     17819     17818     17820
     17818     17824     17825     17826     17824     17821     17821     17825
     17821     17822     17821     17823     17826     17827     17826     17828
     17826     17829     17829     17830     17829     17837     17829     17831
     17837     17838     17837     17839     17837     17840     17831     17832
     17832     17834     17832     17833     17834     17835     17834     17836
     17834     17846     17846     17847     17846     17848     17846     17849
     17849     17850     17849     17851     17849     17852     17852     17853
     17852     17854     17852     17855     17855     17856     17855     17857
     17855     17858     17858     17859     17858     17860     17858     17861
     17861     17862     17861     17863     17861     17864     17864     17865
     17864     17866     17866     17867     17866     17868     17868     17869
     17868     17870     17868     17871     17871     17872     17871     17873
     17871     17874     17874     17875     17874     17876     17874     17877
     17877     17878     17877     17879     17877     17880     17880     17881
     17880     17882     17880     17883     17883     17884     17883     17885
     17883     17886     17886     17887     17886     17888     17886     17889
     17889     17890     17889     17891     17889     17892     17840     17841
     17841     17843     17841     17842     17843     17844     17843     17845
     17843     17893     17893     17894     17893     17895     17893     17896
     17896     17897     17896     17898     17896     17899     17899     17900
     17899     17901     17899     17902     17902     17903     17902     17904
     17902     17905     17905     17906     17905     17907     17905     17908
     17908     17909     17908     17910     17908     17911     17911     17912
     17911     17913     17913     17914     17913     17915     17915     17916
     17915     17917     17915     17918     17918     17919     17918     17920
     17918     17921     17921     17922     17921     17923     17921     17924
     17924     17925     17924     17926     17924     17927     17927     17928
     17927     17929     17927     17930     17930     17931     17930     17932
     17930     17933     17933     17934     17933     17935     17933     17936
     17936     17937     17936     17938     17936     17939     18015     18016
     18015     18017     18015     18018     18015     18012     18012     18013
     18012     18014     18012     18009     18009     18010     18009     18011
     18009     18006     18006     18007     18006     18008     18006     18003
     18003     18004     18003     18005     18003     18000     18000     18001
     18000     18002     18000     17997     17997     17998     17997     17999
     17997     17994     17994     17995     17994     17996     17994     17991
     17991     17992     17991     17993     17991     17988     17988     17989
     17988     17990     17988     17985     17985     17986     17985     17987
     17985     17982     17982     17983     17982     17984     17982     17979
     17979     17980     17979     17981     17979     17977     17977     17978
     17975     17976     17975     17971     17971     17972     17971     17973
     17973     17974     17971     17969     17969     17970     17969     17964
     17964     17965     17964     17966     17964     17962     17962     17959
     17963     17959     17960     17959     17961     17959     17963     17956
     17956     17957     17956     17958     17956     17953     17953     17954
     17953     17955     17953     17940     17940     17949     17940     17945
     17940     17941     17949     17950     17949     17951     17949     17952
     17945     17946     17945     17947     17945     17948     17941     17942
     17941     17943     17941     17944     17969     17967     17967     17968
     17967     18019     18019     18021     18021     18022     18021     18023
     18021     18024     18024     18025     18024     18026     18024     18027
     18027     18028     18027     18029     18027     18030     18030     18031
     18030     18032     18030     18033     18033     18034     18033     18035
     18033     18036     18036     18037     18036     18038     18036     18039
     18039     18040     18039     18041     18039     18042     18042     18043
     18042     18044     18042     18045     18045     18046     18045     18047
     18045     18048     18048     18049     18048     18050     18048     18051
     18051     18052     18051     18053     18051     18054     18054     18055
     18054     18056     18054     18057     18057     18058     18057     18059
     18057     18060     18060     18061     18060     18062     18060     18063
     18063     18064     18063     18065     18063     18066     18066     18067
     18066     18068     18066     18069     18069     18070     18069     18071
     18069     18072     18072     18073     18072     18074     18072     18075
     18075     18076     18075     18077     18075     18078     18078     18079
     18078     18080     18078     18081     18081     18082     18081     18083
     18081     18084     18084     18085     18084     18086     18084     18087
     17975     17977     18019     18020     18088     18089     18088     18090
     18088     18091     18088     18092     18092     18093     18092     18094
     18092     18095     18095     18096     18095     18097     18095     18102
     18102     18098     18098     18101     18098     18099     18098     18100
     18103     18104     18103     18105     18103     18106     18103     18101
     18106     18107     18106     18114     18106     18108     18114     18115
     18114     18116     18114     18117     18108     18109     18109     18111
     18109     18110     18111     18112     18111     18113     18111     18123
     18123     18124     18123     18125     18123     18126     18126     18127
     18126     18128     18126     18129     18129     18130     18129     18131
     18129     18132     18132     18133     18132     18134     18132     18135
     18135     18136     18135     18137     18135     18138     18138     18139
     18138     18140     18138     18141     18141     18142     18141     18143
     18143     18144     18143     18145     18145     18146     18145     18147
     18145     18148     18148     18149     18148     18150     18148     18151
     18151     18152     18151     18153     18151     18154     18154     18155
     18154     18156     18154     18157     18157     18158     18157     18159
     18157     18160     18160     18161     18160     18162     18160     18163
     18163     18164     18163     18165     18163     18166     18166     18167
     18166     18168     18166     18169     18117     18118     18118     18120
     18118     18119     18120     18121     18120     18122     18120     18170
     18170     18171     18170     18172     18170     18173     18173     18174
     18173     18175     18173     18176     18176     18177     18176     18178
     18176     18179     18179     18180     18179     18181     18179     18182
     18182     18183     18182     18184     18182     18185     18185     18186
     18185     18187     18185     18188     18188     18189     18188     18190
     18190     18191     18190     18192     18192     18193     18192     18194
     18192     18195     18195     18196     18195     18197     18195     18198
     18198     18199     18198     18200     18198     18201     18201     18202
     18201     18203     18201     18204     18204     18205     18204     18206
     18204     18207     18207     18208     18207     18209     18207     18210
     18210     18211     18210     18212     18210     18213     18213     18214
     18213     18215     18213     18216     18217     18218     18217     18219
     18217     18220     18217     18221     18221     18222     18221     18223
     18221     18224     18224     18225     18224     18226     18224     18231
     18231     18227     18227     18230     18227     18228     18227     18229
     18232     18233     18232     18234     18232     18235     18232     18230
     18235     18236     18235     18243     18235     18237     18243     18244
     18243     18245     18243     18246     18237     18238     18238     18240
     18238     18239     18240     18241     18240     18242     18240     18252
     18252     18253     18252     18254     18252     18255     18255     18256
     18255     18257     18255     18258     18258     18259     18258     18260
     18258     18261     18261     18262     18261     18263     18261     18264
     18264     18265     18264     18266     18264     18267     18267     18268
     18267     18269     18267     18270     18270     18271     18270     18272
     18272     18273     18272     18274     18274     18275     18274     18276
     18274     18277     18277     18278     18277     18279     18277     18280
     18280     18281     18280     18282     18280     18283     18283     18284
     18283     18285     18283     18286     18286     18287     18286     18288
     18286     18289     18289     18290     18289     18291     18289     18292
     18292     18293     18292     18294     18292     18295     18295     18296
     18295     18297     18295     18298     18246     18247     18247     18249
     18247     18248     18249     18250     18249     18251     18249     18299
     18299     18300     18299     18301     18299     18302     18302     18303
     18302     18304     18302     18305     18305     18306     18305     18307
     18305     18308     18308     18309     18308     18310     18308     18311
     18311     18312     18311     18313     18311     18314     18314     18315
     18314     18316     18314     18317     18317     18318     18317     18319
     18319     18320     18319     18321     18321     18322     18321     18323
     18321     18324     18324     18325     18324     18326     18324     18327
     18327     18328     18327     18329     18327     18330     18330     18331
     18330     18332     18330     18333     18333     18334     18333     18335
     18333     18336     18336     18337     18336     18338     18336     18339
     18339     18340     18339     18341     18339     18342     18342     18343
     18342     18344     18342     18345     18346     18348     18346     18347
     18348     18349     18346     18392     18392     18393     18392     18394
     18392     18389     18389     18390     18389     18391     18346     18350
     18350     18351     18350     18352     18350     18353     18353     18384
     18384     18389     18384     18385     18385     18386     18385     18387
     18385     18388     18353     18354     18354     18355     18354     18356
     18356     18357     18356     18358     18356     18359     18359     18360
     18359     18382     18382     18383     18382     18384     18359     18361
     18361     18362     18361     18371     18371     18376     18376     18377
     18376     18378     18376     18379     18379     18380     18379     18381
     18379     18382     18371     18372     18372     18373     18372     18374
     18372     18375     18361     18363     18363     18364     18363     18365
     18363     18366     18366     18367     18366     18368     18366     18369
     18369     18370     18369     18371     18369     18395     18395     18396
     18395     18397     18397     18398     18397     18399     18397     18400
     18395     18401     18401     18402     18401     18403     18401     18404
     18404     18405     18404     18406     18404     18407     18407     18408
     18407     18409     18407     18410     18410     18411     18410     18412
     18412     18413     18412     18414     18412     18415     18410     18416
     18416     18417     18416     18418     18416     18419     18420     18421
     18420     18422     18420     18423     18420     18424     18424     18425
     18424     18426     18424     18427     18427     18428     18427     18429
     18427     18434     18434     18430     18430     18433     18430     18431
     18430     18432     18435     18436     18435     18437     18435     18438
     18435     18433     18438     18439     18438     18446     18438     18440
     18446     18447     18446     18448     18446     18449     18440     18441
     18441     18443     18441     18442     18443     18444     18443     18445
     18443     18455     18455     18456     18455     18457     18455     18458
     18458     18459     18458     18460     18458     18461     18461     18462
     18461     18463     18461     18464     18464     18465     18464     18466
     18464     18467     18467     18468     18467     18469     18467     18470
     18470     18471     18470     18472     18470     18473     18473     18474
     18473     18475     18475     18476     18475     18477     18477     18478
     18477     18479     18477     18480     18480     18481     18480     18482
     18480     18483     18483     18484     18483     18485     18483     18486
     18486     18487     18486     18488     18486     18489     18489     18490
     18489     18491     18489     18492     18492     18493     18492     18494
     18492     18495     18495     18496     18495     18497     18495     18498
     18498     18499     18498     18500     18498     18501     18449     18450
     18450     18452     18450     18451     18452     18453     18452     18454
     18452     18502     18502     18503     18502     18504     18502     18505
     18505     18506     18505     18507     18505     18508     18508     18509
     18508     18510     18508     18511     18511     18512     18511     18513
     18511     18514     18514     18515     18514     18516     18514     18517
     18517     18518     18517     18519     18517     18520     18520     18521
     18520     18522     18522     18523     18522     18524     18524     18525
     18524     18526     18524     18527     18527     18528     18527     18529
     18527     18530     18530     18531     18530     18532     18530     18533
     18533     18534     18533     18535     18533     18536     18536     18537
     18536     18538     18536     18539     18539     18540     18539     18541
     18539     18542     18542     18543     18542     18544     18542     18545
     18545     18546     18545     18547     18545     18548     18624     18625
     18624     18626     18624     18627     18624     18621     18621     18622
     18621     18623     18621     18618     18618     18619     18618     18620
     18618     18615     18615     18616     18615     18617     18615     18612
     18612     18613     18612     18614     18612     18609     18609     18610
     18609     18611     18609     18606     18606     18607     18606     18608
     18606     18603     18603     18604     18603     18605     18603     18600
     18600     18601     18600     18602     18600     18597     18597     18598
     18597     18599     18597     18594     18594     18595     18594     18596
     18594     18591     18591     18592     18591     18593     18591     18588
     18588     18589     18588     18590     18588     18586     18586     18587
     18584     18585     18584     18580     18580     18581     18580     18582
     18582     18583     18580     18578     18578     18579     18578     18573
     18573     18574     18573     18575     18573     18571     18571     18568
     18572     18568     18569     18568     18570     18568     18572     18565
     18565     18566     18565     18567     18565     18562     18562     18563
     18562     18564     18562     18549     18549     18558     18549     18554
     18549     18550     18558     18559     18558     18560     18558     18561
     18554     18555     18554     18556     18554     18557     18550     18551
     18550     18552     18550     18553     18578     18576     18576     18577
     18576     18628     18628     18630     18630     18631     18630     18632
     18630     18633     18633     18634     18633     18635     18633     18636
     18636     18637     18636     18638     18636     18639     18639     18640
     18639     18641     18639     18642     18642     18643     18642     18644
     18642     18645     18645     18646     18645     18647     18645     18648
     18648     18649     18648     18650     18648     18651     18651     18652
     18651     18653     18651     18654     18654     18655     18654     18656
     18654     18657     18657     18658     18657     18659     18657     18660
     18660     18661     18660     18662     18660     18663     18663     18664
     18663     18665     18663     18666     18666     18667     18666     18668
     18666     18669     18669     18670     18669     18671     18669     18672
     18672     18673     18672     18674     18672     18675     18675     18676
     18675     18677     18675     18678     18678     18679     18678     18680
     18678     18681     18681     18682     18681     18683     18681     18684
     18684     18685     18684     18686     18684     18687     18687     18688
     18687     18689     18687     18690     18690     18691     18690     18692
     18690     18693     18693     18694     18693     18695     18693     18696
     18584     18586     18628     18629     18697     18701     18697     18705
     18697     18709     18701     18702     18701     18703     18701     18704
     18705     18706     18705     18707     18705     18708     18709     18710
     18709     18711     18709     18712     18697     18698     18698     18699
     18698     18700     18698     18713     18713     18714     18713     18715
     18713     18719     18720     18721     18719     18716     18716     18720
     18716     18717     18716     18718     18721     18722     18721     18723
     18721     18724     18724     18725     18724     18732     18724     18726
     18732     18733     18732     18734     18732     18735     18726     18727
     18727     18729     18727     18728     18729     18730     18729     18731
     18729     18741     18741     18742     18741     18743     18741     18744
     18744     18745     18744     18746     18744     18747     18747     18748
     18747     18749     18747     18750     18750     18751     18750     18752
     18750     18753     18753     18754     18753     18755     18753     18756
     18756     18757     18756     18758     18756     18759     18759     18760
     18759     18761     18761     18762     18761     18763     18763     18764
     18763     18765     18763     18766     18766     18767     18766     18768
     18766     18769     18769     18770     18769     18771     18769     18772
     18772     18773     18772     18774     18772     18775     18775     18776
     18775     18777     18775     18778     18778     18779     18778     18780
     18778     18781     18781     18782     18781     18783     18781     18784
     18784     18785     18784     18786     18784     18787     18735     18736
     18736     18738     18736     18737     18738     18739     18738     18740
     18738     18788     18788     18789     18788     18790     18788     18791
     18791     18792     18791     18793     18791     18794     18794     18795
     18794     18796     18794     18797     18797     18798     18797     18799
     18797     18800     18800     18801     18800     18802     18800     18803
     18803     18804     18803     18805     18803     18806     18806     18807
     18806     18808     18808     18809     18808     18810     18810     18811
     18810     18812     18810     18813     18813     18814     18813     18815
     18813     18816     18816     18817     18816     18818     18816     18819
     18819     18820     18819     18821     18819     18822     18822     18823
     18822     18824     18822     18825     18825     18826     18825     18827
     18825     18828     18828     18829     18828     18830     18828     18831
     18831     18832     18831     18833     18831     18834     18835     18836
     18835     18837     18835     18838     18835     18839     18839     18840
     18839     18841     18839     18842     18842     18843     18842     18844
     18842     18849     18849     18845     18845     18848     18845     18846
     18845     18847     18850     18851     18850     18852     18850     18853
     18850     18848     18853     18854     18853     18861     18853     18855
     18861     18862     18861     18863     18861     18864     18855     18856
     18856     18858     18856     18857     18858     18859     18858     18860
     18858     18870     18870     18871     18870     18872     18870     18873
     18873     18874     18873     18875     18873     18876     18876     18877
     18876     18878     18876     18879     18879     18880     18879     18881
     18879     18882     18882     18883     18882     18884     18882     18885
     18885     18886     18885     18887     18885     18888     18888     18889
     18888     18890     18890     18891     18890     18892     18892     18893
     18892     18894     18892     18895     18895     18896     18895     18897
     18895     18898     18898     18899     18898     18900     18898     18901
     18901     18902     18901     18903     18901     18904     18904     18905
     18904     18906     18904     18907     18907     18908     18907     18909
     18907     18910     18910     18911     18910     18912     18910     18913
     18913     18914     18913     18915     18913     18916     18864     18865
     18865     18867     18865     18866     18867     18868     18867     18869
     18867     18917     18917     18918     18917     18919     18917     18920
     18920     18921     18920     18922     18920     18923     18923     18924
     18923     18925     18923     18926     18926     18927     18926     18928
     18926     18929     18929     18930     18929     18931     18929     18932
     18932     18933     18932     18934     18932     18935     18935     18936
     18935     18937     18937     18938     18937     18939     18939     18940
     18939     18941     18939     18942     18942     18943     18942     18944
     18942     18945     18945     18946     18945     18947     18945     18948
     18948     18949     18948     18950     18948     18951     18951     18952
     18951     18953     18951     18954     18954     18955     18954     18956
     18954     18957     18957     18958     18957     18959     18957     18960
     18960     18961     18960     18962     18960     18963     18964     18966
     18964     18965     18966     18967     18964     19010     19010     19011
     19010     19012     19010     19007     19007     19008     19007     19009
     18964     18968     18968     18969     18968     18970     18968     18971
     18971     19002     19002     19007     19002     19003     19003     19004
     19003     19005     19003     19006     18971     18972     18972     18973
     18972     18974     18974     18975     18974     18976     18974     18977
     18977     18978     18977     19000     19000     19001     19000     19002
     18977     18979     18979     18980     18979     18989     18989     18994
     18994     18995     18994     18996     18994     18997     18997     18998
     18997     18999     18997     19000     18989     18990     18990     18991
     18990     18992     18990     18993     18979     18981     18981     18982
     18981     18983     18981     18984     18984     18985     18984     18986
     18984     18987     18987     18988     18987     18989     18987     19013
     19013     19014     19013     19015     19015     19016     19015     19017
     19015     19018     19013     19019     19019     19020     19019     19021
     19019     19022     19022     19023     19022     19024     19022     19025
     19025     19026     19025     19027     19025     19028     19028     19029
     19028     19030     19030     19031     19030     19032     19030     19033
     19028     19034     19034     19035     19034     19036     19034     19037
     19113     19114     19113     19115     19113     19116     19113     19110
     19110     19111     19110     19112     19110     19107     19107     19108
     19107     19109     19107     19104     19104     19105     19104     19106
     19104     19101     19101     19102     19101     19103     19101     19098
     19098     19099     19098     19100     19098     19095     19095     19096
     19095     19097     19095     19092     19092     19093     19092     19094
     19092     19089     19089     19090     19089     19091     19089     19086
     19086     19087     19086     19088     19086     19083     19083     19084
     19083     19085     19083     19080     19080     19081     19080     19082
     19080     19077     19077     19078     19077     19079     19077     19075
     19075     19076     19073     19074     19073     19069     19069     19070
     19069     19071     19071     19072     19069     19067     19067     19068
     19067     19062     19062     19063     19062     19064     19062     19060
     19060     19057     19061     19057     19058     19057     19059     19057
     19061     19054     19054     19055     19054     19056     19054     19051
     19051     19052     19051     19053     19051     19038     19038     19047
     19038     19043     19038     19039     19047     19048     19047     19049
     19047     19050     19043     19044     19043     19045     19043     19046
     19039     19040     19039     19041     19039     19042     19067     19065
     19065     19066     19065     19117     19117     19119     19119     19120
     19119     19121     19119     19122     19122     19123     19122     19124
     19122     19125     19125     19126     19125     19127     19125     19128
     19128     19129     19128     19130     19128     19131     19131     19132
     19131     19133     19131     19134     19134     19135     19134     19136
     19134     19137     19137     19138     19137     19139     19137     19140
     19140     19141     19140     19142     19140     19143     19143     19144
     19143     19145     19143     19146     19146     19147     19146     19148
     19146     19149     19149     19150     19149     19151     19149     19152
     19152     19153     19152     19154     19152     19155     19155     19156
     19155     19157     19155     19158     19158     19159     19158     19160
     19158     19161     19161     19162     19161     19163     19161     19164
     19164     19165     19164     19166     19164     19167     19167     19168
     19167     19169     19167     19170     19170     19171     19170     19172
     19170     19173     19173     19174     19173     19175     19173     19176
     19176     19177     19176     19178     19176     19179     19179     19180
     19179     19181     19179     19182     19182     19183     19182     19184
     19182     19185     19073     19075     19117     19118     19186     19188
     19186     19187     19188     19189     19186     19232     19232     19233
     19232     19234     19232     19229     19229     19230     19229     19231
     19186     19190     19190     19191     19190     19192     19190     19193
     19193     19224     19224     19229     19224     19225     19225     19226
     19225     19227     19225     19228     19193     19194     19194     19195
     19194     19196     19196     19197     19196     19198     19196     19199
     19199     19200     19199     19222     19222     19223     19222     19224
     19199     19201     19201     19202     19201     19211     19211     19216
     19216     19217     19216     19218     19216     19219     19219     19220
     19219     19221     19219     19222     19211     19212     19212     19213
     19212     19214     19212     19215     19201     19203     19203     19204
     19203     19205     19203     19206     19206     19207     19206     19208
     19206     19209     19209     19210     19209     19211     19209     19235
     19235     19236     19235     19237     19237     19238     19237     19239
     19237     19240     19235     19241     19241     19242     19241     19243
     19241     19244     19244     19245     19244     19246     19244     19247
     19247     19248     19247     19249     19247     19250     19250     19251
     19250     19252     19252     19253     19252     19254     19252     19255
     19250     19256     19256     19257     19256     19258     19256     19259
     19260     19262     19260     19261     19262     19263     19260     19306
     19306     19307     19306     19308     19306     19303     19303     19304
     19303     19305     19260     19264     19264     19265     19264     19266
     19264     19267     19267     19298     19298     19303     19298     19299
     19299     19300     19299     19301     19299     19302     19267     19268
     19268     19269     19268     19270     19270     19271     19270     19272
     19270     19273     19273     19274     19273     19296     19296     19297
     19296     19298     19273     19275     19275     19276     19275     19285
     19285     19290     19290     19291     19290     19292     19290     19293
     19293     19294     19293     19295     19293     19296     19285     19286
     19286     19287     19286     19288     19286     19289     19275     19277
     19277     19278     19277     19279     19277     19280     19280     19281
     19280     19282     19280     19283     19283     19284     19283     19285
     19283     19309     19309     19310     19309     19311     19311     19312
     19311     19313     19311     19314     19309     19315     19315     19316
     19315     19317     19315     19318     19318     19319     19318     19320
     19318     19321     19321     19322     19321     19323     19321     19324
     19324     19325     19324     19326     19326     19327     19326     19328
     19326     19329     19324     19330     19330     19331     19330     19332
     19330     19333     19334     19335     19334     19336     19334     19337
     19334     19338     19338     19339     19338     19340     19338     19341
     19341     19342     19341     19343     19341     19348     19348     19344
     19344     19347     19344     19345     19344     19346     19349     19350
     19349     19351     19349     19352     19349     19347     19352     19353
     19352     19360     19352     19354     19360     19361     19360     19362
     19360     19363     19354     19355     19355     19357     19355     19356
     19357     19358     19357     19359     19357     19369     19369     19370
     19369     19371     19369     19372     19372     19373     19372     19374
     19372     19375     19375     19376     19375     19377     19375     19378
     19378     19379     19378     19380     19378     19381     19381     19382
     19381     19383     19381     19384     19384     19385     19384     19386
     19384     19387     19387     19388     19387     19389     19389     19390
     19389     19391     19391     19392     19391     19393     19391     19394
     19394     19395     19394     19396     19394     19397     19397     19398
     19397     19399     19397     19400     19400     19401     19400     19402
     19400     19403     19403     19404     19403     19405     19403     19406
     19406     19407     19406     19408     19406     19409     19409     19410
     19409     19411     19409     19412     19412     19413     19412     19414
     19412     19415     19363     19364     19364     19366     19364     19365
     19366     19367     19366     19368     19366     19416     19416     19417
     19416     19418     19416     19419     19419     19420     19419     19421
     19419     19422     19422     19423     19422     19424     19422     19425
     19425     19426     19425     19427     19425     19428     19428     19429
     19428     19430     19428     19431     19431     19432     19431     19433
     19431     19434     19434     19435     19434     19436     19436     19437
     19436     19438     19438     19439     19438     19440     19438     19441
     19441     19442     19441     19443     19441     19444     19444     19445
     19444     19446     19444     19447     19447     19448     19447     19449
     19447     19450     19450     19451     19450     19452     19450     19453
     19453     19454     19453     19455     19453     19456     19456     19457
     19456     19458     19456     19459     19459     19460     19459     19461
     19459     19462     19463     19465     19463     19464     19465     19466
     19463     19509     19509     19510     19509     19511     19509     19506
     19506     19507     19506     19508     19463     19467     19467     19468
     19467     19469     19467     19470     19470     19501     19501     19506
     19501     19502     19502     19503     19502     19504     19502     19505
     19470     19471     19471     19472     19471     19473     19473     19474
     19473     19475     19473     19476     19476     19477     19476     19499
     19499     19500     19499     19501     19476     19478     19478     19479
     19478     19488     19488     19493     19493     19494     19493     19495
     19493     19496     19496     19497     19496     19498     19496     19499
     19488     19489     19489     19490     19489     19491     19489     19492
     19478     19480     19480     19481     19480     19482     19480     19483
     19483     19484     19483     19485     19483     19486     19486     19487
     19486     19488     19486     19512     19512     19513     19512     19514
     19514     19515     19514     19516     19514     19517     19512     19518
     19518     19519     19518     19520     19518     19521     19521     19522
     19521     19523     19521     19524     19524     19525     19524     19526
     19524     19527     19527     19528     19527     19529     19529     19530
     19529     19531     19529     19532     19527     19533     19533     19534
     19533     19535     19533     19536     19612     19613     19612     19614
     19612     19615     19612     19609     19609     19610     19609     19611
     19609     19606     19606     19607     19606     19608     19606     19603
     19603     19604     19603     19605     19603     19600     19600     19601
     19600     19602     19600     19597     19597     19598     19597     19599
     19597     19594     19594     19595     19594     19596     19594     19591
     19591     19592     19591     19593     19591     19588     19588     19589
     19588     19590     19588     19585     19585     19586     19585     19587
     19585     19582     19582     19583     19582     19584     19582     19579
     19579     19580     19579     19581     19579     19576     19576     19577
     19576     19578     19576     19574     19574     19575     19572     19573
     19572     19568     19568     19569     19568     19570     19570     19571
     19568     19566     19566     19567     19566     19561     19561     19562
     19561     19563     19561     19559     19559     19556     19560     19556
     19557     19556     19558     19556     19560     19553     19553     19554
     19553     19555     19553     19550     19550     19551     19550     19552
     19550     19537     19537     19546     19537     19542     19537     19538
     19546     19547     19546     19548     19546     19549     19542     19543
     19542     19544     19542     19545     19538     19539     19538     19540
     19538     19541     19566     19564     19564     19565     19564     19616
     19616     19618     19618     19619     19618     19620     19618     19621
     19621     19622     19621     19623     19621     19624     19624     19625
     19624     19626     19624     19627     19627     19628     19627     19629
     19627     19630     19630     19631     19630     19632     19630     19633
     19633     19634     19633     19635     19633     19636     19636     19637
     19636     19638     19636     19639     19639     19640     19639     19641
     19639     19642     19642     19643     19642     19644     19642     19645
     19645     19646     19645     19647     19645     19648     19648     19649
     19648     19650     19648     19651     19651     19652     19651     19653
     19651     19654     19654     19655     19654     19656     19654     19657
     19657     19658     19657     19659     19657     19660     19660     19661
     19660     19662     19660     19663     19663     19664     19663     19665
     19663     19666     19666     19667     19666     19668     19666     19669
     19669     19670     19669     19671     19669     19672     19672     19673
     19672     19674     19672     19675     19675     19676     19675     19677
     19675     19678     19678     19679     19678     19680     19678     19681
     19681     19682     19681     19683     19681     19684     19572     19574
     19616     19617     19685     19689     19685     19693     19685     19697
     19689     19690     19689     19691     19689     19692     19693     19694
     19693     19695     19693     19696     19697     19698     19697     19699
     19697     19700     19685     19686     19686     19687     19686     19688
     19686     19701     19701     19702     19701     19703     19701     19707
     19708     19709     19707     19704     19704     19708     19704     19705
     19704     19706     19709     19710     19709     19711     19709     19712
     19712     19713     19712     19720     19712     19714     19720     19721
     19720     19722     19720     19723     19714     19715     19715     19717
     19715     19716     19717     19718     19717     19719     19717     19729
     19729     19730     19729     19731     19729     19732     19732     19733
     19732     19734     19732     19735     19735     19736     19735     19737
     19735     19738     19738     19739     19738     19740     19738     19741
     19741     19742     19741     19743     19741     19744     19744     19745
     19744     19746     19744     19747     19747     19748     19747     19749
     19749     19750     19749     19751     19751     19752     19751     19753
     19751     19754     19754     19755     19754     19756     19754     19757
     19757     19758     19757     19759     19757     19760     19760     19761
     19760     19762     19760     19763     19763     19764     19763     19765
     19763     19766     19766     19767     19766     19768     19766     19769
     19769     19770     19769     19771     19769     19772     19772     19773
     19772     19774     19772     19775     19723     19724     19724     19726
     19724     19725     19726     19727     19726     19728     19726     19776
     19776     19777     19776     19778     19776     19779     19779     19780
     19779     19781     19779     19782     19782     19783     19782     19784
     19782     19785     19785     19786     19785     19787     19785     19788
     19788     19789     19788     19790     19788     19791     19791     19792
     19791     19793     19791     19794     19794     19795     19794     19796
     19796     19797     19796     19798     19798     19799     19798     19800
     19798     19801     19801     19802     19801     19803     19801     19804
     19804     19805     19804     19806     19804     19807     19807     19808
     19807     19809     19807     19810     19810     19811     19810     19812
     19810     19813     19813     19814     19813     19815     19813     19816
     19816     19817     19816     19818     19816     19819     19819     19820
     19819     19821     19819     19822     19823     19827     19823     19831
     19823     19835     19827     19828     19827     19829     19827     19830
     19831     19832     19831     19833     19831     19834     19835     19836
     19835     19837     19835     19838     19823     19824     19824     19825
     19824     19826     19824     19839     19839     19840     19839     19841
     19839     19845     19846     19847     19845     19842     19842     19846
     19842     19843     19842     19844     19847     19848     19847     19849
     19847     19850     19850     19851     19850     19858     19850     19852
     19858     19859     19858     19860     19858     19861     19852     19853
     19853     19855     19853     19854     19855     19856     19855     19857
     19855     19867     19867     19868     19867     19869     19867     19870
     19870     19871     19870     19872     19870     19873     19873     19874
     19873     19875     19873     19876     19876     19877     19876     19878
     19876     19879     19879     19880     19879     19881     19879     19882
     19882     19883     19882     19884     19882     19885     19885     19886
     19885     19887     19887     19888     19887     19889     19889     19890
     19889     19891     19889     19892     19892     19893     19892     19894
     19892     19895     19895     19896     19895     19897     19895     19898
     19898     19899     19898     19900     19898     19901     19901     19902
     19901     19903     19901     19904     19904     19905     19904     19906
     19904     19907     19907     19908     19907     19909     19907     19910
     19910     19911     19910     19912     19910     19913     19861     19862
     19862     19864     19862     19863     19864     19865     19864     19866
     19864     19914     19914     19915     19914     19916     19914     19917
     19917     19918     19917     19919     19917     19920     19920     19921
     19920     19922     19920     19923     19923     19924     19923     19925
     19923     19926     19926     19927     19926     19928     19926     19929
     19929     19930     19929     19931     19929     19932     19932     19933
     19932     19934     19934     19935     19934     19936     19936     19937
     19936     19938     19936     19939     19939     19940     19939     19941
     19939     19942     19942     19943     19942     19944     19942     19945
     19945     19946     19945     19947     19945     19948     19948     19949
     19948     19950     19948     19951     19951     19952     19951     19953
     19951     19954     19954     19955     19954     19956     19954     19957
     19957     19958     19957     19959     19957     19960     19961     19965
     19961     19969     19961     19973     19965     19966     19965     19967
     19965     19968     19969     19970     19969     19971     19969     19972
     19973     19974     19973     19975     19973     19976     19961     19962
     19962     19963     19962     19964     19962     19977     19977     19978
     19977     19979     19977     19983     19984     19985     19983     19980
     19980     19984     19980     19981     19980     19982     19985     19986
     19985     19987     19985     19988     19988     19989     19988     19996
     19988     19990     19996     19997     19996     19998     19996     19999
     19990     19991     19991     19993     19991     19992     19993     19994
     19993     19995     19993     20005     20005     20006     20005     20007
     20005     20008     20008     20009     20008     20010     20008     20011
     20011     20012     20011     20013     20011     20014     20014     20015
     20014     20016     20014     20017     20017     20018     20017     20019
     20017     20020     20020     20021     20020     20022     20020     20023
     20023     20024     20023     20025     20025     20026     20025     20027
     20027     20028     20027     20029     20027     20030     20030     20031
     20030     20032     20030     20033     20033     20034     20033     20035
     20033     20036     20036     20037     20036     20038     20036     20039
     20039     20040     20039     20041     20039     20042     20042     20043
     20042     20044     20042     20045     20045     20046     20045     20047
     20045     20048     20048     20049     20048     20050     20048     20051
     19999     20000     20000     20002     20000     20001     20002     20003
     20002     20004     20002     20052     20052     20053     20052     20054
     20052     20055     20055     20056     20055     20057     20055     20058
     20058     20059     20058     20060     20058     20061     20061     20062
     20061     20063     20061     20064     20064     20065     20064     20066
     20064     20067     20067     20068     20067     20069     20067     20070
     20070     20071     20070     20072     20072     20073     20072     20074
     20074     20075     20074     20076     20074     20077     20077     20078
     20077     20079     20077     20080     20080     20081     20080     20082
     20080     20083     20083     20084     20083     20085     20083     20086
     20086     20087     20086     20088     20086     20089     20089     20090
     20089     20091     20089     20092     20092     20093     20092     20094
     20092     20095     20095     20096     20095     20097     20095     20098
     20099     20100     20099     20101     20099     20102     20099     20103
     20103     20104     20103     20105     20103     20106     20106     20107
     20106     20108     20106     20113     20113     20109     20109     20112
     20109     20110     20109     20111     20114     20115     20114     20116
     20114     20117     20114     20112     20117     20118     20117     20125
     20117     20119     20125     20126     20125     20127     20125     20128
     20119     20120     20120     20122     20120     20121     20122     20123
     20122     20124     20122     20134     20134     20135     20134     20136
     20134     20137     20137     20138     20137     20139     20137     20140
     20140     20141     20140     20142     20140     20143     20143     20144
     20143     20145     20143     20146     20146     20147     20146     20148
     20146     20149     20149     20150     20149     20151     20149     20152
     20152     20153     20152     20154     20154     20155     20154     20156
     20156     20157     20156     20158     20156     20159     20159     20160
     20159     20161     20159     20162     20162     20163     20162     20164
     20162     20165     20165     20166     20165     20167     20165     20168
     20168     20169     20168     20170     20168     20171     20171     20172
     20171     20173     20171     20174     20174     20175     20174     20176
     20174     20177     20177     20178     20177     20179     20177     20180
     20128     20129     20129     20131     20129     20130     20131     20132
     20131     20133     20131     20181     20181     20182     20181     20183
     20181     20184     20184     20185     20184     20186     20184     20187
     20187     20188     20187     20189     20187     20190     20190     20191
     20190     20192     20190     20193     20193     20194     20193     20195
     20193     20196     20196     20197     20196     20198     20196     20199
     20199     20200     20199     20201     20201     20202     20201     20203
     20203     20204     20203     20205     20203     20206     20206     20207
     20206     20208     20206     20209     20209     20210     20209     20211
     20209     20212     20212     20213     20212     20214     20212     20215
     20215     20216     20215     20217     20215     20218     20218     20219
     20218     20220     20218     20221     20221     20222     20221     20223
     20221     20224     20224     20225     20224     20226     20224     20227
     20228     20229     20228     20230     20228     20231     20228     20232
     20232     20233     20232     20234     20232     20235     20235     20236
     20235     20237     20235     20242     20242     20238     20238     20241
     20238     20239     20238     20240     20243     20244     20243     20245
     20243     20246     20243     20241     20246     20247     20246     20254
     20246     20248     20254     20255     20254     20256     20254     20257
     20248     20249     20249     20251     20249     20250     20251     20252
     20251     20253     20251     20263     20263     20264     20263     20265
     20263     20266     20266     20267     20266     20268     20266     20269
     20269     20270     20269     20271     20269     20272     20272     20273
     20272     20274     20272     20275     20275     20276     20275     20277
     20275     20278     20278     20279     20278     20280     20278     20281
     20281     20282     20281     20283     20283     20284     20283     20285
     20285     20286     20285     20287     20285     20288     20288     20289
     20288     20290     20288     20291     20291     20292     20291     20293
     20291     20294     20294     20295     20294     20296     20294     20297
     20297     20298     20297     20299     20297     20300     20300     20301
     20300     20302     20300     20303     20303     20304     20303     20305
     20303     20306     20306     20307     20306     20308     20306     20309
     20257     20258     20258     20260     20258     20259     20260     20261
     20260     20262     20260     20310     20310     20311     20310     20312
     20310     20313     20313     20314     20313     20315     20313     20316
     20316     20317     20316     20318     20316     20319     20319     20320
     20319     20321     20319     20322     20322     20323     20322     20324
     20322     20325     20325     20326     20325     20327     20325     20328
     20328     20329     20328     20330     20330     20331     20330     20332
     20332     20333     20332     20334     20332     20335     20335     20336
     20335     20337     20335     20338     20338     20339     20338     20340
     20338     20341     20341     20342     20341     20343     20341     20344
     20344     20345     20344     20346     20344     20347     20347     20348
     20347     20349     20347     20350     20350     20351     20350     20352
     20350     20353     20353     20354     20353     20355     20353     20356
     20357     20361     20357     20365     20357     20369     20361     20362
     20361     20363     20361     20364     20365     20366     20365     20367
     20365     20368     20369     20370     20369     20371     20369     20372
     20357     20358     20358     20359     20358     20360     20358     20373
     20373     20374     20373     20375     20373     20379     20380     20381
     20379     20376     20376     20380     20376     20377     20376     20378
     20381     20382     20381     20383     20381     20384     20384     20385
     20384     20392     20384     20386     20392     20393     20392     20394
     20392     20395     20386     20387     20387     20389     20387     20388
     20389     20390     20389     20391     20389     20401     20401     20402
     20401     20403     20401     20404     20404     20405     20404     20406
     20404     20407     20407     20408     20407     20409     20407     20410
     20410     20411     20410     20412     20410     20413     20413     20414
     20413     20415     20413     20416     20416     20417     20416     20418
     20416     20419     20419     20420     20419     20421     20421     20422
     20421     20423     20423     20424     20423     20425     20423     20426
     20426     20427     20426     20428     20426     20429     20429     20430
     20429     20431     20429     20432     20432     20433     20432     20434
     20432     20435     20435     20436     20435     20437     20435     20438
     20438     20439     20438     20440     20438     20441     20441     20442
     20441     20443     20441     20444     20444     20445     20444     20446
     20444     20447     20395     20396     20396     20398     20396     20397
     20398     20399     20398     20400     20398     20448     20448     20449
     20448     20450     20448     20451     20451     20452     20451     20453
     20451     20454     20454     20455     20454     20456     20454     20457
     20457     20458     20457     20459     20457     20460     20460     20461
     20460     20462     20460     20463     20463     20464     20463     20465
     20463     20466     20466     20467     20466     20468     20468     20469
     20468     20470     20470     20471     20470     20472     20470     20473
     20473     20474     20473     20475     20473     20476     20476     20477
     20476     20478     20476     20479     20479     20480     20479     20481
     20479     20482     20482     20483     20482     20484     20482     20485
     20485     20486     20485     20487     20485     20488     20488     20489
     20488     20490     20488     20491     20491     20492     20491     20493
     20491     20494     20495     20499     20495     20503     20495     20507
     20499     20500     20499     20501     20499     20502     20503     20504
     20503     20505     20503     20506     20507     20508     20507     20509
     20507     20510     20495     20496     20496     20497     20496     20498
     20496     20511     20511     20512     20511     20513     20511     20517
     20518     20519     20517     20514     20514     20518     20514     20515
     20514     20516     20519     20520     20519     20521     20519     20522
     20522     20523     20522     20530     20522     20524     20530     20531
     20530     20532     20530     20533     20524     20525     20525     20527
     20525     20526     20527     20528     20527     20529     20527     20539
     20539     20540     20539     20541     20539     20542     20542     20543
     20542     20544     20542     20545     20545     20546     20545     20547
     20545     20548     20548     20549     20548     20550     20548     20551
     20551     20552     20551     20553     20551     20554     20554     20555
     20554     20556     20554     20557     20557     20558     20557     20559
     20559     20560     20559     20561     20561     20562     20561     20563
     20561     20564     20564     20565     20564     20566     20564     20567
     20567     20568     20567     20569     20567     20570     20570     20571
     20570     20572     20570     20573     20573     20574     20573     20575
     20573     20576     20576     20577     20576     20578     20576     20579
     20579     20580     20579     20581     20579     20582     20582     20583
     20582     20584     20582     20585     20533     20534     20534     20536
     20534     20535     20536     20537     20536     20538     20536     20586
     20586     20587     20586     20588     20586     20589     20589     20590
     20589     20591     20589     20592     20592     20593     20592     20594
     20592     20595     20595     20596     20595     20597     20595     20598
     20598     20599     20598     20600     20598     20601     20601     20602
     20601     20603     20601     20604     20604     20605     20604     20606
     20606     20607     20606     20608     20608     20609     20608     20610
     20608     20611     20611     20612     20611     20613     20611     20614
     20614     20615     20614     20616     20614     20617     20617     20618
     20617     20619     20617     20620     20620     20621     20620     20622
     20620     20623     20623     20624     20623     20625     20623     20626
     20626     20627     20626     20628     20626     20629     20629     20630
     20629     20631     20629     20632     20633     20634     20633     20635
     20633     20636     20633     20637     20637     20638     20637     20639
     20637     20640     20640     20641     20640     20642     20640     20647
     20647     20643     20643     20646     20643     20644     20643     20645
     20648     20649     20648     20650     20648     20651     20648     20646
     20651     20652     20651     20659     20651     20653     20659     20660
     20659     20661     20659     20662     20653     20654     20654     20656
     20654     20655     20656     20657     20656     20658     20656     20668
     20668     20669     20668     20670     20668     20671     20671     20672
     20671     20673     20671     20674     20674     20675     20674     20676
     20674     20677     20677     20678     20677     20679     20677     20680
     20680     20681     20680     20682     20680     20683     20683     20684
     20683     20685     20683     20686     20686     20687     20686     20688
     20688     20689     20688     20690     20690     20691     20690     20692
     20690     20693     20693     20694     20693     20695     20693     20696
     20696     20697     20696     20698     20696     20699     20699     20700
     20699     20701     20699     20702     20702     20703     20702     20704
     20702     20705     20705     20706     20705     20707     20705     20708
     20708     20709     20708     20710     20708     20711     20711     20712
     20711     20713     20711     20714     20662     20663     20663     20665
     20663     20664     20665     20666     20665     20667     20665     20715
     20715     20716     20715     20717     20715     20718     20718     20719
     20718     20720     20718     20721     20721     20722     20721     20723
     20721     20724     20724     20725     20724     20726     20724     20727
     20727     20728     20727     20729     20727     20730     20730     20731
     20730     20732     20730     20733     20733     20734     20733     20735
     20735     20736     20735     20737     20737     20738     20737     20739
     20737     20740     20740     20741     20740     20742     20740     20743
     20743     20744     20743     20745     20743     20746     20746     20747
     20746     20748     20746     20749     20749     20750     20749     20751
     20749     20752     20752     20753     20752     20754     20752     20755
     20755     20756     20755     20757     20755     20758     20758     20759
     20758     20760     20758     20761     20762     20764     20762     20763
     20764     20765     20762     20808     20808     20809     20808     20810
     20808     20805     20805     20806     20805     20807     20762     20766
     20766     20767     20766     20768     20766     20769     20769     20800
     20800     20805     20800     20801     20801     20802     20801     20803
     20801     20804     20769     20770     20770     20771     20770     20772
     20772     20773     20772     20774     20772     20775     20775     20776
     20775     20798     20798     20799     20798     20800     20775     20777
     20777     20778     20777     20787     20787     20792     20792     20793
     20792     20794     20792     20795     20795     20796     20795     20797
     20795     20798     20787     20788     20788     20789     20788     20790
     20788     20791     20777     20779     20779     20780     20779     20781
     20779     20782     20782     20783     20782     20784     20782     20785
     20785     20786     20785     20787     20785     20811     20811     20812
     20811     20813     20813     20814     20813     20815     20813     20816
     20811     20817     20817     20818     20817     20819     20817     20820
     20820     20821     20820     20822     20820     20823     20823     20824
     20823     20825     20823     20826     20826     20827     20826     20828
     20828     20829     20828     20830     20828     20831     20826     20832
     20832     20833     20832     20834     20832     20835     20836     20837
     20836     20838     20836     20839     20836     20840     20840     20841
     20840     20842     20840     20843     20843     20844     20843     20845
     20843     20850     20850     20846     20846     20849     20846     20847
     20846     20848     20851     20852     20851     20853     20851     20854
     20851     20849     20854     20855     20854     20862     20854     20856
     20862     20863     20862     20864     20862     20865     20856     20857
     20857     20859     20857     20858     20859     20860     20859     20861
     20859     20871     20871     20872     20871     20873     20871     20874
     20874     20875     20874     20876     20874     20877     20877     20878
     20877     20879     20877     20880     20880     20881     20880     20882
     20880     20883     20883     20884     20883     20885     20883     20886
     20886     20887     20886     20888     20886     20889     20889     20890
     20889     20891     20891     20892     20891     20893     20893     20894
     20893     20895     20893     20896     20896     20897     20896     20898
     20896     20899     20899     20900     20899     20901     20899     20902
     20902     20903     20902     20904     20902     20905     20905     20906
     20905     20907     20905     20908     20908     20909     20908     20910
     20908     20911     20911     20912     20911     20913     20911     20914
     20914     20915     20914     20916     20914     20917     20865     20866
     20866     20868     20866     20867     20868     20869     20868     20870
     20868     20918     20918     20919     20918     20920     20918     20921
     20921     20922     20921     20923     20921     20924     20924     20925
     20924     20926     20924     20927     20927     20928     20927     20929
     20927     20930     20930     20931     20930     20932     20930     20933
     20933     20934     20933     20935     20933     20936     20936     20937
     20936     20938     20938     20939     20938     20940     20940     20941
     20940     20942     20940     20943     20943     20944     20943     20945
     20943     20946     20946     20947     20946     20948     20946     20949
     20949     20950     20949     20951     20949     20952     20952     20953
     20952     20954     20952     20955     20955     20956     20955     20957
     20955     20958     20958     20959     20958     20960     20958     20961
     20961     20962     20961     20963     20961     20964     20965     20969
     20965     20973     20965     20977     20969     20970     20969     20971
     20969     20972     20973     20974     20973     20975     20973     20976
     20977     20978     20977     20979     20977     20980     20965     20966
     20966     20967     20966     20968     20966     20981     20981     20982
     20981     20983     20981     20987     20988     20989     20987     20984
     20984     20988     20984     20985     20984     20986     20989     20990
     20989     20991     20989     20992     20992     20993     20992     21000
     20992     20994     21000     21001     21000     21002     21000     21003
     20994     20995     20995     20997     20995     20996     20997     20998
     20997     20999     20997     21009     21009     21010     21009     21011
     21009     21012     21012     21013     21012     21014     21012     21015
     21015     21016     21015     21017     21015     21018     21018     21019
     21018     21020     21018     21021     21021     21022     21021     21023
     21021     21024     21024     21025     21024     21026     21024     21027
     21027     21028     21027     21029     21029     21030     21029     21031
     21031     21032     21031     21033     21031     21034     21034     21035
     21034     21036     21034     21037     21037     21038     21037     21039
     21037     21040     21040     21041     21040     21042     21040     21043
     21043     21044     21043     21045     21043     21046     21046     21047
     21046     21048     21046     21049     21049     21050     21049     21051
     21049     21052     21052     21053     21052     21054     21052     21055
     21003     21004     21004     21006     21004     21005     21006     21007
     21006     21008     21006     21056     21056     21057     21056     21058
     21056     21059     21059     21060     21059     21061     21059     21062
     21062     21063     21062     21064     21062     21065     21065     21066
     21065     21067     21065     21068     21068     21069     21068     21070
     21068     21071     21071     21072     21071     21073     21071     21074
     21074     21075     21074     21076     21076     21077     21076     21078
     21078     21079     21078     21080     21078     21081     21081     21082
     21081     21083     21081     21084     21084     21085     21084     21086
     21084     21087     21087     21088     21087     21089     21087     21090
     21090     21091     21090     21092     21090     21093     21093     21094
     21093     21095     21093     21096     21096     21097     21096     21098
     21096     21099     21099     21100     21099     21101     21099     21102
     21103     21107     21103     21111     21103     21115     21107     21108
     21107     21109     21107     21110     21111     21112     21111     21113
     21111     21114     21115     21116     21115     21117     21115     21118
     21103     21104     21104     21105     21104     21106     21104     21119
     21119     21120     21119     21121     21119     21125     21126     21127
     21125     21122     21122     21126     21122     21123     21122     21124
     21127     21128     21127     21129     21127     21130     21130     21131
     21130     21138     21130     21132     21138     21139     21138     21140
     21138     21141     21132     21133     21133     21135     21133     21134
     21135     21136     21135     21137     21135     21147     21147     21148
     21147     21149     21147     21150     21150     21151     21150     21152
     21150     21153     21153     21154     21153     21155     21153     21156
     21156     21157     21156     21158     21156     21159     21159     21160
     21159     21161     21159     21162     21162     21163     21162     21164
     21162     21165     21165     21166     21165     21167     21167     21168
     21167     21169     21169     21170     21169     21171     21169     21172
     21172     21173     21172     21174     21172     21175     21175     21176
     21175     21177     21175     21178     21178     21179     21178     21180
     21178     21181     21181     21182     21181     21183     21181     21184
     21184     21185     21184     21186     21184     21187     21187     21188
     21187     21189     21187     21190     21190     21191     21190     21192
     21190     21193     21141     21142     21142     21144     21142     21143
     21144     21145     21144     21146     21144     21194     21194     21195
     21194     21196     21194     21197     21197     21198     21197     21199
     21197     21200     21200     21201     21200     21202     21200     21203
     21203     21204     21203     21205     21203     21206     21206     21207
     21206     21208     21206     21209     21209     21210     21209     21211
     21209     21212     21212     21213     21212     21214     21214     21215
     21214     21216     21216     21217     21216     21218     21216     21219
     21219     21220     21219     21221     21219     21222     21222     21223
     21222     21224     21222     21225     21225     21226     21225     21227
     21225     21228     21228     21229     21228     21230     21228     21231
     21231     21232     21231     21233     21231     21234     21234     21235
     21234     21236     21234     21237     21237     21238     21237     21239
     21237     21240     21241     21242     21241     21243     21241     21244
     21241     21245     21245     21246     21245     21247     21245     21248
     21248     21249     21248     21250     21248     21255     21255     21251
     21251     21254     21251     21252     21251     21253     21256     21257
     21256     21258     21256     21259     21256     21254     21259     21260
     21259     21267     21259     21261     21267     21268     21267     21269
     21267     21270     21261     21262     21262     21264     21262     21263
     21264     21265     21264     21266     21264     21276     21276     21277
     21276     21278     21276     21279     21279     21280     21279     21281
     21279     21282     21282     21283     21282     21284     21282     21285
     21285     21286     21285     21287     21285     21288     21288     21289
     21288     21290     21288     21291     21291     21292     21291     21293
     21291     21294     21294     21295     21294     21296     21296     21297
     21296     21298     21298     21299     21298     21300     21298     21301
     21301     21302     21301     21303     21301     21304     21304     21305
     21304     21306     21304     21307     21307     21308     21307     21309
     21307     21310     21310     21311     21310     21312     21310     21313
     21313     21314     21313     21315     21313     21316     21316     21317
     21316     21318     21316     21319     21319     21320     21319     21321
     21319     21322     21270     21271     21271     21273     21271     21272
     21273     21274     21273     21275     21273     21323     21323     21324
     21323     21325     21323     21326     21326     21327     21326     21328
     21326     21329     21329     21330     21329     21331     21329     21332
     21332     21333     21332     21334     21332     21335     21335     21336
     21335     21337     21335     21338     21338     21339     21338     21340
     21338     21341     21341     21342     21341     21343     21343     21344
     21343     21345     21345     21346     21345     21347     21345     21348
     21348     21349     21348     21350     21348     21351     21351     21352
     21351     21353     21351     21354     21354     21355     21354     21356
     21354     21357     21357     21358     21357     21359     21357     21360
     21360     21361     21360     21362     21360     21363     21363     21364
     21363     21365     21363     21366     21366     21367     21366     21368
     21366     21369     21445     21446     21445     21447     21445     21448
     21445     21442     21442     21443     21442     21444     21442     21439
     21439     21440     21439     21441     21439     21436     21436     21437
     21436     21438     21436     21433     21433     21434     21433     21435
     21433     21430     21430     21431     21430     21432     21430     21427
     21427     21428     21427     21429     21427     21424     21424     21425
     21424     21426     21424     21421     21421     21422     21421     21423
     21421     21418     21418     21419     21418     21420     21418     21415
     21415     21416     21415     21417     21415     21412     21412     21413
     21412     21414     21412     21409     21409     21410     21409     21411
     21409     21407     21407     21408     21405     21406     21405     21401
     21401     21402     21401     21403     21403     21404     21401     21399
     21399     21400     21399     21394     21394     21395     21394     21396
     21394     21392     21392     21389     21393     21389     21390     21389
     21391     21389     21393     21386     21386     21387     21386     21388
     21386     21383     21383     21384     21383     21385     21383     21370
     21370     21379     21370     21375     21370     21371     21379     21380
     21379     21381     21379     21382     21375     21376     21375     21377
     21375     21378     21371     21372     21371     21373     21371     21374
     21399     21397     21397     21398     21397     21449     21449     21451
     21451     21452     21451     21453     21451     21454     21454     21455
     21454     21456     21454     21457     21457     21458     21457     21459
     21457     21460     21460     21461     21460     21462     21460     21463
     21463     21464     21463     21465     21463     21466     21466     21467
     21466     21468     21466     21469     21469     21470     21469     21471
     21469     21472     21472     21473     21472     21474     21472     21475
     21475     21476     21475     21477     21475     21478     21478     21479
     21478     21480     21478     21481     21481     21482     21481     21483
     21481     21484     21484     21485     21484     21486     21484     21487
     21487     21488     21487     21489     21487     21490     21490     21491
     21490     21492     21490     21493     21493     21494     21493     21495
     21493     21496     21496     21497     21496     21498     21496     21499
     21499     21500     21499     21501     21499     21502     21502     21503
     21502     21504     21502     21505     21505     21506     21505     21507
     21505     21508     21508     21509     21508     21510     21508     21511
     21511     21512     21511     21513     21511     21514     21514     21515
     21514     21516     21514     21517     21405     21407     21449     21450
     21518     21520     21518     21519     21520     21521     21518     21564
     21564     21565     21564     21566     21564     21561     21561     21562
     21561     21563     21518     21522     21522     21523     21522     21524
     21522     21525     21525     21556     21556     21561     21556     21557
     21557     21558     21557     21559     21557     21560     21525     21526
     21526     21527     21526     21528     21528     21529     21528     21530
     21528     21531     21531     21532     21531     21554     21554     21555
     21554     21556     21531     21533     21533     21534     21533     21543
     21543     21548     21548     21549     21548     21550     21548     21551
     21551     21552     21551     21553     21551     21554     21543     21544
     21544     21545     21544     21546     21544     21547     21533     21535
     21535     21536     21535     21537     21535     21538     21538     21539
     21538     21540     21538     21541     21541     21542     21541     21543
     21541     21567     21567     21568     21567     21569     21569     21570
     21569     21571     21569     21572     21567     21573     21573     21574
     21573     21575     21573     21576     21576     21577     21576     21578
     21576     21579     21579     21580     21579     21581     21579     21582
     21582     21583     21582     21584     21584     21585     21584     21586
     21584     21587     21582     21588     21588     21589     21588     21590
     21588     21591     21592     21596     21592     21600     21592     21604
     21596     21597     21596     21598     21596     21599     21600     21601
     21600     21602     21600     21603     21604     21605     21604     21606
     21604     21607     21592     21593     21593     21594     21593     21595
     21593     21608     21608     21609     21608     21610     21608     21614
     21615     21616     21614     21611     21611     21615     21611     21612
     21611     21613     21616     21617     21616     21618     21616     21619
     21619     21620     21619     21627     21619     21621     21627     21628
     21627     21629     21627     21630     21621     21622     21622     21624
     21622     21623     21624     21625     21624     21626     21624     21636
     21636     21637     21636     21638     21636     21639     21639     21640
     21639     21641     21639     21642     21642     21643     21642     21644
     21642     21645     21645     21646     21645     21647     21645     21648
     21648     21649     21648     21650     21648     21651     21651     21652
     21651     21653     21651     21654     21654     21655     21654     21656
     21656     21657     21656     21658     21658     21659     21658     21660
     21658     21661     21661     21662     21661     21663     21661     21664
     21664     21665     21664     21666     21664     21667     21667     21668
     21667     21669     21667     21670     21670     21671     21670     21672
     21670     21673     21673     21674     21673     21675     21673     21676
     21676     21677     21676     21678     21676     21679     21679     21680
     21679     21681     21679     21682     21630     21631     21631     21633
     21631     21632     21633     21634     21633     21635     21633     21683
     21683     21684     21683     21685     21683     21686     21686     21687
     21686     21688     21686     21689     21689     21690     21689     21691
     21689     21692     21692     21693     21692     21694     21692     21695
     21695     21696     21695     21697     21695     21698     21698     21699
     21698     21700     21698     21701     21701     21702     21701     21703
     21703     21704     21703     21705     21705     21706     21705     21707
     21705     21708     21708     21709     21708     21710     21708     21711
     21711     21712     21711     21713     21711     21714     21714     21715
     21714     21716     21714     21717     21717     21718     21717     21719
     21717     21720     21720     21721     21720     21722     21720     21723
     21723     21724     21723     21725     21723     21726     21726     21727
     21726     21728     21726     21729     21730     21731     21730     21732
     21730     21733     21730     21734     21734     21735     21734     21736
     21734     21737     21737     21738     21737     21739     21737     21744
     21744     21740     21740     21743     21740     21741     21740     21742
     21745     21746     21745     21747     21745     21748     21745     21743
     21748     21749     21748     21756     21748     21750     21756     21757
     21756     21758     21756     21759     21750     21751     21751     21753
     21751     21752     21753     21754     21753     21755     21753     21765
     21765     21766     21765     21767     21765     21768     21768     21769
     21768     21770     21768     21771     21771     21772     21771     21773
     21771     21774     21774     21775     21774     21776     21774     21777
     21777     21778     21777     21779     21777     21780     21780     21781
     21780     21782     21780     21783     21783     21784     21783     21785
     21785     21786     21785     21787     21787     21788     21787     21789
     21787     21790     21790     21791     21790     21792     21790     21793
     21793     21794     21793     21795     21793     21796     21796     21797
     21796     21798     21796     21799     21799     21800     21799     21801
     21799     21802     21802     21803     21802     21804     21802     21805
     21805     21806     21805     21807     21805     21808     21808     21809
     21808     21810     21808     21811     21759     21760     21760     21762
     21760     21761     21762     21763     21762     21764     21762     21812
     21812     21813     21812     21814     21812     21815     21815     21816
     21815     21817     21815     21818     21818     21819     21818     21820
     21818     21821     21821     21822     21821     21823     21821     21824
     21824     21825     21824     21826     21824     21827     21827     21828
     21827     21829     21827     21830     21830     21831     21830     21832
     21832     21833     21832     21834     21834     21835     21834     21836
     21834     21837     21837     21838     21837     21839     21837     21840
     21840     21841     21840     21842     21840     21843     21843     21844
     21843     21845     21843     21846     21846     21847     21846     21848
     21846     21849     21849     21850     21849     21851     21849     21852
     21852     21853     21852     21854     21852     21855     21855     21856
     21855     21857     21855     21858     21859     21863     21859     21867
     21859     21871     21863     21864     21863     21865     21863     21866
     21867     21868     21867     21869     21867     21870     21871     21872
     21871     21873     21871     21874     21859     21860     21860     21861
     21860     21862     21860     21875     21875     21876     21875     21877
     21875     21881     21882     21883     21881     21878     21878     21882
     21878     21879     21878     21880     21883     21884     21883     21885
     21883     21886     21886     21887     21886     21894     21886     21888
     21894     21895     21894     21896     21894     21897     21888     21889
     21889     21891     21889     21890     21891     21892     21891     21893
     21891     21903     21903     21904     21903     21905     21903     21906
     21906     21907     21906     21908     21906     21909     21909     21910
     21909     21911     21909     21912     21912     21913     21912     21914
     21912     21915     21915     21916     21915     21917     21915     21918
     21918     21919     21918     21920     21918     21921     21921     21922
     21921     21923     21923     21924     21923     21925     21925     21926
     21925     21927     21925     21928     21928     21929     21928     21930
     21928     21931     21931     21932     21931     21933     21931     21934
     21934     21935     21934     21936     21934     21937     21937     21938
     21937     21939     21937     21940     21940     21941     21940     21942
     21940     21943     21943     21944     21943     21945     21943     21946
     21946     21947     21946     21948     21946     21949     21897     21898
     21898     21900     21898     21899     21900     21901     21900     21902
     21900     21950     21950     21951     21950     21952     21950     21953
     21953     21954     21953     21955     21953     21956     21956     21957
     21956     21958     21956     21959     21959     21960     21959     21961
     21959     21962     21962     21963     21962     21964     21962     21965
     21965     21966     21965     21967     21965     21968     21968     21969
     21968     21970     21970     21971     21970     21972     21972     21973
     21972     21974     21972     21975     21975     21976     21975     21977
     21975     21978     21978     21979     21978     21980     21978     21981
     21981     21982     21981     21983     21981     21984     21984     21985
     21984     21986     21984     21987     21987     21988     21987     21989
     21987     21990     21990     21991     21990     21992     21990     21993
     21993     21994     21993     21995     21993     21996     22072     22073
     22072     22074     22072     22075     22072     22069     22069     22070
     22069     22071     22069     22066     22066     22067     22066     22068
     22066     22063     22063     22064     22063     22065     22063     22060
     22060     22061     22060     22062     22060     22057     22057     22058
     22057     22059     22057     22054     22054     22055     22054     22056
     22054     22051     22051     22052     22051     22053     22051     22048
     22048     22049     22048     22050     22048     22045     22045     22046
     22045     22047     22045     22042     22042     22043     22042     22044
     22042     22039     22039     22040     22039     22041     22039     22036
     22036     22037     22036     22038     22036     22034     22034     22035
     22032     22033     22032     22028     22028     22029     22028     22030
     22030     22031     22028     22026     22026     22027     22026     22021
     22021     22022     22021     22023     22021     22019     22019     22016
     22020     22016     22017     22016     22018     22016     22020     22013
     22013     22014     22013     22015     22013     22010     22010     22011
     22010     22012     22010     21997     21997     22006     21997     22002
     21997     21998     22006     22007     22006     22008     22006     22009
     22002     22003     22002     22004     22002     22005     21998     21999
     21998     22000     21998     22001     22026     22024     22024     22025
     22024     22076     22076     22078     22078     22079     22078     22080
     22078     22081     22081     22082     22081     22083     22081     22084
     22084     22085     22084     22086     22084     22087     22087     22088
     22087     22089     22087     22090     22090     22091     22090     22092
     22090     22093     22093     22094     22093     22095     22093     22096
     22096     22097     22096     22098     22096     22099     22099     22100
     22099     22101     22099     22102     22102     22103     22102     22104
     22102     22105     22105     22106     22105     22107     22105     22108
     22108     22109     22108     22110     22108     22111     22111     22112
     22111     22113     22111     22114     22114     22115     22114     22116
     22114     22117     22117     22118     22117     22119     22117     22120
     22120     22121     22120     22122     22120     22123     22123     22124
     22123     22125     22123     22126     22126     22127     22126     22128
     22126     22129     22129     22130     22129     22131     22129     22132
     22132     22133     22132     22134     22132     22135     22135     22136
     22135     22137     22135     22138     22138     22139     22138     22140
     22138     22141     22141     22142     22141     22143     22141     22144
     22032     22034     22076     22077     22145     22146     22145     22147
     22145     22148     22145     22149     22149     22150     22149     22151
     22149     22152     22152     22153     22152     22154     22152     22159
     22159     22155     22155     22158     22155     22156     22155     22157
     22160     22161     22160     22162     22160     22163     22160     22158
     22163     22164     22163     22171     22163     22165     22171     22172
     22171     22173     22171     22174     22165     22166     22166     22168
     22166     22167     22168     22169     22168     22170     22168     22180
     22180     22181     22180     22182     22180     22183     22183     22184
     22183     22185     22183     22186     22186     22187     22186     22188
     22186     22189     22189     22190     22189     22191     22189     22192
     22192     22193     22192     22194     22192     22195     22195     22196
     22195     22197     22195     22198     22198     22199     22198     22200
     22200     22201     22200     22202     22202     22203     22202     22204
     22202     22205     22205     22206     22205     22207     22205     22208
     22208     22209     22208     22210     22208     22211     22211     22212
     22211     22213     22211     22214     22214     22215     22214     22216
     22214     22217     22217     22218     22217     22219     22217     22220
     22220     22221     22220     22222     22220     22223     22223     22224
     22223     22225     22223     22226     22174     22175     22175     22177
     22175     22176     22177     22178     22177     22179     22177     22227
     22227     22228     22227     22229     22227     22230     22230     22231
     22230     22232     22230     22233     22233     22234     22233     22235
     22233     22236     22236     22237     22236     22238     22236     22239
     22239     22240     22239     22241     22239     22242     22242     22243
     22242     22244     22242     22245     22245     22246     22245     22247
     22247     22248     22247     22249     22249     22250     22249     22251
     22249     22252     22252     22253     22252     22254     22252     22255
     22255     22256     22255     22257     22255     22258     22258     22259
     22258     22260     22258     22261     22261     22262     22261     22263
     22261     22264     22264     22265     22264     22266     22264     22267
     22267     22268     22267     22269     22267     22270     22270     22271
     22270     22272     22270     22273     22274     22275     22274     22276
     22274     22277     22274     22278     22278     22279     22278     22280
     22278     22281     22281     22282     22281     22283     22281     22288
     22288     22284     22284     22287     22284     22285     22284     22286
     22289     22290     22289     22291     22289     22292     22289     22287
     22292     22293     22292     22300     22292     22294     22300     22301
     22300     22302     22300     22303     22294     22295     22295     22297
     22295     22296     22297     22298     22297     22299     22297     22309
     22309     22310     22309     22311     22309     22312     22312     22313
     22312     22314     22312     22315     22315     22316     22315     22317
     22315     22318     22318     22319     22318     22320     22318     22321
     22321     22322     22321     22323     22321     22324     22324     22325
     22324     22326     22324     22327     22327     22328     22327     22329
     22329     22330     22329     22331     22331     22332     22331     22333
     22331     22334     22334     22335     22334     22336     22334     22337
     22337     22338     22337     22339     22337     22340     22340     22341
     22340     22342     22340     22343     22343     22344     22343     22345
     22343     22346     22346     22347     22346     22348     22346     22349
     22349     22350     22349     22351     22349     22352     22352     22353
     22352     22354     22352     22355     22303     22304     22304     22306
     22304     22305     22306     22307     22306     22308     22306     22356
     22356     22357     22356     22358     22356     22359     22359     22360
     22359     22361     22359     22362     22362     22363     22362     22364
     22362     22365     22365     22366     22365     22367     22365     22368
     22368     22369     22368     22370     22368     22371     22371     22372
     22371     22373     22371     22374     22374     22375     22374     22376
     22376     22377     22376     22378     22378     22379     22378     22380
     22378     22381     22381     22382     22381     22383     22381     22384
     22384     22385     22384     22386     22384     22387     22387     22388
     22387     22389     22387     22390     22390     22391     22390     22392
     22390     22393     22393     22394     22393     22395     22393     22396
     22396     22397     22396     22398     22396     22399     22399     22400
     22399     22401     22399     22402     22403     22407     22403     22411
     22403     22415     22407     22408     22407     22409     22407     22410
     22411     22412     22411     22413     22411     22414     22415     22416
     22415     22417     22415     22418     22403     22404     22404     22405
     22404     22406     22404     22419     22419     22420     22419     22421
     22419     22425     22426     22427     22425     22422     22422     22426
     22422     22423     22422     22424     22427     22428     22427     22429
     22427     22430     22430     22431     22430     22438     22430     22432
     22438     22439     22438     22440     22438     22441     22432     22433
     22433     22435     22433     22434     22435     22436     22435     22437
     22435     22447     22447     22448     22447     22449     22447     22450
     22450     22451     22450     22452     22450     22453     22453     22454
     22453     22455     22453     22456     22456     22457     22456     22458
     22456     22459     22459     22460     22459     22461     22459     22462
     22462     22463     22462     22464     22462     22465     22465     22466
     22465     22467     22467     22468     22467     22469     22469     22470
     22469     22471     22469     22472     22472     22473     22472     22474
     22472     22475     22475     22476     22475     22477     22475     22478
     22478     22479     22478     22480     22478     22481     22481     22482
     22481     22483     22481     22484     22484     22485     22484     22486
     22484     22487     22487     22488     22487     22489     22487     22490
     22490     22491     22490     22492     22490     22493     22441     22442
     22442     22444     22442     22443     22444     22445     22444     22446
     22444     22494     22494     22495     22494     22496     22494     22497
     22497     22498     22497     22499     22497     22500     22500     22501
     22500     22502     22500     22503     22503     22504     22503     22505
     22503     22506     22506     22507     22506     22508     22506     22509
     22509     22510     22509     22511     22509     22512     22512     22513
     22512     22514     22514     22515     22514     22516     22516     22517
     22516     22518     22516     22519     22519     22520     22519     22521
     22519     22522     22522     22523     22522     22524     22522     22525
     22525     22526     22525     22527     22525     22528     22528     22529
     22528     22530     22528     22531     22531     22532     22531     22533
     22531     22534     22534     22535     22534     22536     22534     22537
     22537     22538     22537     22539     22537     22540     22541     22545
     22541     22549     22541     22553     22545     22546     22545     22547
     22545     22548     22549     22550     22549     22551     22549     22552
     22553     22554     22553     22555     22553     22556     22541     22542
     22542     22543     22542     22544     22542     22557     22557     22558
     22557     22559     22557     22563     22564     22565     22563     22560
     22560     22564     22560     22561     22560     22562     22565     22566
     22565     22567     22565     22568     22568     22569     22568     22576
     22568     22570     22576     22577     22576     22578     22576     22579
     22570     22571     22571     22573     22571     22572     22573     22574
     22573     22575     22573     22585     22585     22586     22585     22587
     22585     22588     22588     22589     22588     22590     22588     22591
     22591     22592     22591     22593     22591     22594     22594     22595
     22594     22596     22594     22597     22597     22598     22597     22599
     22597     22600     22600     22601     22600     22602     22600     22603
     22603     22604     22603     22605     22605     22606     22605     22607
     22607     22608     22607     22609     22607     22610     22610     22611
     22610     22612     22610     22613     22613     22614     22613     22615
     22613     22616     22616     22617     22616     22618     22616     22619
     22619     22620     22619     22621     22619     22622     22622     22623
     22622     22624     22622     22625     22625     22626     22625     22627
     22625     22628     22628     22629     22628     22630     22628     22631
     22579     22580     22580     22582     22580     22581     22582     22583
     22582     22584     22582     22632     22632     22633     22632     22634
     22632     22635     22635     22636     22635     22637     22635     22638
     22638     22639     22638     22640     22638     22641     22641     22642
     22641     22643     22641     22644     22644     22645     22644     22646
     22644     22647     22647     22648     22647     22649     22647     22650
     22650     22651     22650     22652     22652     22653     22652     22654
     22654     22655     22654     22656     22654     22657     22657     22658
     22657     22659     22657     22660     22660     22661     22660     22662
     22660     22663     22663     22664     22663     22665     22663     22666
     22666     22667     22666     22668     22666     22669     22669     22670
     22669     22671     22669     22672     22672     22673     22672     22674
     22672     22675     22675     22676     22675     22677     22675     22678
     22679     22681     22679     22680     22681     22682     22679     22725
     22725     22726     22725     22727     22725     22722     22722     22723
     22722     22724     22679     22683     22683     22684     22683     22685
     22683     22686     22686     22717     22717     22722     22717     22718
     22718     22719     22718     22720     22718     22721     22686     22687
     22687     22688     22687     22689     22689     22690     22689     22691
     22689     22692     22692     22693     22692     22715     22715     22716
     22715     22717     22692     22694     22694     22695     22694     22704
     22704     22709     22709     22710     22709     22711     22709     22712
     22712     22713     22712     22714     22712     22715     22704     22705
     22705     22706     22705     22707     22705     22708     22694     22696
     22696     22697     22696     22698     22696     22699     22699     22700
     22699     22701     22699     22702     22702     22703     22702     22704
     22702     22728     22728     22729     22728     22730     22730     22731
     22730     22732     22730     22733     22728     22734     22734     22735
     22734     22736     22734     22737     22737     22738     22737     22739
     22737     22740     22740     22741     22740     22742     22740     22743
     22743     22744     22743     22745     22745     22746     22745     22747
     22745     22748     22743     22749     22749     22750     22749     22751
     22749     22752     22753     22757     22753     22761     22753     22765
     22757     22758     22757     22759     22757     22760     22761     22762
     22761     22763     22761     22764     22765     22766     22765     22767
     22765     22768     22753     22754     22754     22755     22754     22756
     22754     22769     22769     22770     22769     22771     22769     22775
     22776     22777     22775     22772     22772     22776     22772     22773
     22772     22774     22777     22778     22777     22779     22777     22780
     22780     22781     22780     22788     22780     22782     22788     22789
     22788     22790     22788     22791     22782     22783     22783     22785
     22783     22784     22785     22786     22785     22787     22785     22797
     22797     22798     22797     22799     22797     22800     22800     22801
     22800     22802     22800     22803     22803     22804     22803     22805
     22803     22806     22806     22807     22806     22808     22806     22809
     22809     22810     22809     22811     22809     22812     22812     22813
     22812     22814     22812     22815     22815     22816     22815     22817
     22817     22818     22817     22819     22819     22820     22819     22821
     22819     22822     22822     22823     22822     22824     22822     22825
     22825     22826     22825     22827     22825     22828     22828     22829
     22828     22830     22828     22831     22831     22832     22831     22833
     22831     22834     22834     22835     22834     22836     22834     22837
     22837     22838     22837     22839     22837     22840     22840     22841
     22840     22842     22840     22843     22791     22792     22792     22794
     22792     22793     22794     22795     22794     22796     22794     22844
     22844     22845     22844     22846     22844     22847     22847     22848
     22847     22849     22847     22850     22850     22851     22850     22852
     22850     22853     22853     22854     22853     22855     22853     22856
     22856     22857     22856     22858     22856     22859     22859     22860
     22859     22861     22859     22862     22862     22863     22862     22864
     22864     22865     22864     22866     22866     22867     22866     22868
     22866     22869     22869     22870     22869     22871     22869     22872
     22872     22873     22872     22874     22872     22875     22875     22876
     22875     22877     22875     22878     22878     22879     22878     22880
     22878     22881     22881     22882     22881     22883     22881     22884
     22884     22885     22884     22886     22884     22887     22887     22888
     22887     22889     22887     22890     22891     22893     22891     22892
     22893     22894     22891     22937     22937     22938     22937     22939
     22937     22934     22934     22935     22934     22936     22891     22895
     22895     22896     22895     22897     22895     22898     22898     22929
     22929     22934     22929     22930     22930     22931     22930     22932
     22930     22933     22898     22899     22899     22900     22899     22901
     22901     22902     22901     22903     22901     22904     22904     22905
     22904     22927     22927     22928     22927     22929     22904     22906
     22906     22907     22906     22916     22916     22921     22921     22922
     22921     22923     22921     22924     22924     22925     22924     22926
     22924     22927     22916     22917     22917     22918     22917     22919
     22917     22920     22906     22908     22908     22909     22908     22910
     22908     22911     22911     22912     22911     22913     22911     22914
     22914     22915     22914     22916     22914     22940     22940     22941
     22940     22942     22942     22943     22942     22944     22942     22945
     22940     22946     22946     22947     22946     22948     22946     22949
     22949     22950     22949     22951     22949     22952     22952     22953
     22952     22954     22952     22955     22955     22956     22955     22957
     22957     22958     22957     22959     22957     22960     22955     22961
     22961     22962     22961     22963     22961     22964     22965     22966
     22965     22967     22965     22968     22965     22969     22969     22970
     22969     22971     22969     22972     22972     22973     22972     22974
     22972     22979     22979     22975     22975     22978     22975     22976
     22975     22977     22980     22981     22980     22982     22980     22983
     22980     22978     22983     22984     22983     22991     22983     22985
     22991     22992     22991     22993     22991     22994     22985     22986
     22986     22988     22986     22987     22988     22989     22988     22990
     22988     23000     23000     23001     23000     23002     23000     23003
     23003     23004     23003     23005     23003     23006     23006     23007
     23006     23008     23006     23009     23009     23010     23009     23011
     23009     23012     23012     23013     23012     23014     23012     23015
     23015     23016     23015     23017     23015     23018     23018     23019
     23018     23020     23020     23021     23020     23022     23022     23023
     23022     23024     23022     23025     23025     23026     23025     23027
     23025     23028     23028     23029     23028     23030     23028     23031
     23031     23032     23031     23033     23031     23034     23034     23035
     23034     23036     23034     23037     23037     23038     23037     23039
     23037     23040     23040     23041     23040     23042     23040     23043
     23043     23044     23043     23045     23043     23046     22994     22995
     22995     22997     22995     22996     22997     22998     22997     22999
     22997     23047     23047     23048     23047     23049     23047     23050
     23050     23051     23050     23052     23050     23053     23053     23054
     23053     23055     23053     23056     23056     23057     23056     23058
     23056     23059     23059     23060     23059     23061     23059     23062
     23062     23063     23062     23064     23062     23065     23065     23066
     23065     23067     23067     23068     23067     23069     23069     23070
     23069     23071     23069     23072     23072     23073     23072     23074
     23072     23075     23075     23076     23075     23077     23075     23078
     23078     23079     23078     23080     23078     23081     23081     23082
     23081     23083     23081     23084     23084     23085     23084     23086
     23084     23087     23087     23088     23087     23089     23087     23090
     23090     23091     23090     23092     23090     23093     23094     23098
     23094     23102     23094     23106     23098     23099     23098     23100
     23098     23101     23102     23103     23102     23104     23102     23105
     23106     23107     23106     23108     23106     23109     23094     23095
     23095     23096     23095     23097     23095     23110     23110     23111
     23110     23112     23110     23116     23117     23118     23116     23113
     23113     23117     23113     23114     23113     23115     23118     23119
     23118     23120     23118     23121     23121     23122     23121     23129
     23121     23123     23129     23130     23129     23131     23129     23132
     23123     23124     23124     23126     23124     23125     23126     23127
     23126     23128     23126     23138     23138     23139     23138     23140
     23138     23141     23141     23142     23141     23143     23141     23144
     23144     23145     23144     23146     23144     23147     23147     23148
     23147     23149     23147     23150     23150     23151     23150     23152
     23150     23153     23153     23154     23153     23155     23153     23156
     23156     23157     23156     23158     23158     23159     23158     23160
     23160     23161     23160     23162     23160     23163     23163     23164
     23163     23165     23163     23166     23166     23167     23166     23168
     23166     23169     23169     23170     23169     23171     23169     23172
     23172     23173     23172     23174     23172     23175     23175     23176
     23175     23177     23175     23178     23178     23179     23178     23180
     23178     23181     23181     23182     23181     23183     23181     23184
     23132     23133     23133     23135     23133     23134     23135     23136
     23135     23137     23135     23185     23185     23186     23185     23187
     23185     23188     23188     23189     23188     23190     23188     23191
     23191     23192     23191     23193     23191     23194     23194     23195
     23194     23196     23194     23197     23197     23198     23197     23199
     23197     23200     23200     23201     23200     23202     23200     23203
     23203     23204     23203     23205     23205     23206     23205     23207
     23207     23208     23207     23209     23207     23210     23210     23211
     23210     23212     23210     23213     23213     23214     23213     23215
     23213     23216     23216     23217     23216     23218     23216     23219
     23219     23220     23219     23221     23219     23222     23222     23223
     23222     23224     23222     23225     23225     23226     23225     23227
     23225     23228     23228     23229     23228     23230     23228     23231
     23232     23233     23232     23234     23232     23235     23232     23236
     23236     23237     23236     23238     23236     23239     23239     23240
     23239     23241     23239     23246     23246     23242     23242     23245
     23242     23243     23242     23244     23247     23248     23247     23249
     23247     23250     23247     23245     23250     23251     23250     23258
     23250     23252     23258     23259     23258     23260     23258     23261
     23252     23253     23253     23255     23253     23254     23255     23256
     23255     23257     23255     23267     23267     23268     23267     23269
     23267     23270     23270     23271     23270     23272     23270     23273
     23273     23274     23273     23275     23273     23276     23276     23277
     23276     23278     23276     23279     23279     23280     23279     23281
     23279     23282     23282     23283     23282     23284     23282     23285
     23285     23286     23285     23287     23287     23288     23287     23289
     23289     23290     23289     23291     23289     23292     23292     23293
     23292     23294     23292     23295     23295     23296     23295     23297
     23295     23298     23298     23299     23298     23300     23298     23301
     23301     23302     23301     23303     23301     23304     23304     23305
     23304     23306     23304     23307     23307     23308     23307     23309
     23307     23310     23310     23311     23310     23312     23310     23313
     23261     23262     23262     23264     23262     23263     23264     23265
     23264     23266     23264     23314     23314     23315     23314     23316
     23314     23317     23317     23318     23317     23319     23317     23320
     23320     23321     23320     23322     23320     23323     23323     23324
     23323     23325     23323     23326     23326     23327     23326     23328
     23326     23329     23329     23330     23329     23331     23329     23332
     23332     23333     23332     23334     23334     23335     23334     23336
     23336     23337     23336     23338     23336     23339     23339     23340
     23339     23341     23339     23342     23342     23343     23342     23344
     23342     23345     23345     23346     23345     23347     23345     23348
     23348     23349     23348     23350     23348     23351     23351     23352
     23351     23353     23351     23354     23354     23355     23354     23356
     23354     23357     23357     23358     23357     23359     23357     23360
     23361     23365     23361     23369     23361     23373     23365     23366
     23365     23367     23365     23368     23369     23370     23369     23371
     23369     23372     23373     23374     23373     23375     23373     23376
     23361     23362     23362     23363     23362     23364     23362     23377
     23377     23378     23377     23379     23377     23383     23384     23385
     23383     23380     23380     23384     23380     23381     23380     23382
     23385     23386     23385     23387     23385     23388     23388     23389
     23388     23396     23388     23390     23396     23397     23396     23398
     23396     23399     23390     23391     23391     23393     23391     23392
     23393     23394     23393     23395     23393     23405     23405     23406
     23405     23407     23405     23408     23408     23409     23408     23410
     23408     23411     23411     23412     23411     23413     23411     23414
     23414     23415     23414     23416     23414     23417     23417     23418
     23417     23419     23417     23420     23420     23421     23420     23422
     23420     23423     23423     23424     23423     23425     23425     23426
     23425     23427     23427     23428     23427     23429     23427     23430
     23430     23431     23430     23432     23430     23433     23433     23434
     23433     23435     23433     23436     23436     23437     23436     23438
     23436     23439     23439     23440     23439     23441     23439     23442
     23442     23443     23442     23444     23442     23445     23445     23446
     23445     23447     23445     23448     23448     23449     23448     23450
     23448     23451     23399     23400     23400     23402     23400     23401
     23402     23403     23402     23404     23402     23452     23452     23453
     23452     23454     23452     23455     23455     23456     23455     23457
     23455     23458     23458     23459     23458     23460     23458     23461
     23461     23462     23461     23463     23461     23464     23464     23465
     23464     23466     23464     23467     23467     23468     23467     23469
     23467     23470     23470     23471     23470     23472     23472     23473
     23472     23474     23474     23475     23474     23476     23474     23477
     23477     23478     23477     23479     23477     23480     23480     23481
     23480     23482     23480     23483     23483     23484     23483     23485
     23483     23486     23486     23487     23486     23488     23486     23489
     23489     23490     23489     23491     23489     23492     23492     23493
     23492     23494     23492     23495     23495     23496     23495     23497
     23495     23498     23499     23503     23499     23507     23499     23511
     23503     23504     23503     23505     23503     23506     23507     23508
     23507     23509     23507     23510     23511     23512     23511     23513
     23511     23514     23499     23500     23500     23501     23500     23502
     23500     23515     23515     23516     23515     23517     23515     23521
     23522     23523     23521     23518     23518     23522     23518     23519
     23518     23520     23523     23524     23523     23525     23523     23526
     23526     23527     23526     23534     23526     23528     23534     23535
     23534     23536     23534     23537     23528     23529     23529     23531
     23529     23530     23531     23532     23531     23533     23531     23543
     23543     23544     23543     23545     23543     23546     23546     23547
     23546     23548     23546     23549     23549     23550     23549     23551
     23549     23552     23552     23553     23552     23554     23552     23555
     23555     23556     23555     23557     23555     23558     23558     23559
     23558     23560     23558     23561     23561     23562     23561     23563
     23563     23564     23563     23565     23565     23566     23565     23567
     23565     23568     23568     23569     23568     23570     23568     23571
     23571     23572     23571     23573     23571     23574     23574     23575
     23574     23576     23574     23577     23577     23578     23577     23579
     23577     23580     23580     23581     23580     23582     23580     23583
     23583     23584     23583     23585     23583     23586     23586     23587
     23586     23588     23586     23589     23537     23538     23538     23540
     23538     23539     23540     23541     23540     23542     23540     23590
     23590     23591     23590     23592     23590     23593     23593     23594
     23593     23595     23593     23596     23596     23597     23596     23598
     23596     23599     23599     23600     23599     23601     23599     23602
     23602     23603     23602     23604     23602     23605     23605     23606
     23605     23607     23605     23608     23608     23609     23608     23610
     23610     23611     23610     23612     23612     23613     23612     23614
     23612     23615     23615     23616     23615     23617     23615     23618
     23618     23619     23618     23620     23618     23621     23621     23622
     23621     23623     23621     23624     23624     23625     23624     23626
     23624     23627     23627     23628     23627     23629     23627     23630
     23630     23631     23630     23632     23630     23633     23633     23634
     23633     23635     23633     23636     23637     23641     23637     23645
     23637     23649     23641     23642     23641     23643     23641     23644
     23645     23646     23645     23647     23645     23648     23649     23650
     23649     23651     23649     23652     23637     23638     23638     23639
     23638     23640     23638     23653     23653     23654     23653     23655
     23653     23659     23660     23661     23659     23656     23656     23660
     23656     23657     23656     23658     23661     23662     23661     23663
     23661     23664     23664     23665     23664     23672     23664     23666
     23672     23673     23672     23674     23672     23675     23666     23667
     23667     23669     23667     23668     23669     23670     23669     23671
     23669     23681     23681     23682     23681     23683     23681     23684
     23684     23685     23684     23686     23684     23687     23687     23688
     23687     23689     23687     23690     23690     23691     23690     23692
     23690     23693     23693     23694     23693     23695     23693     23696
     23696     23697     23696     23698     23696     23699     23699     23700
     23699     23701     23701     23702     23701     23703     23703     23704
     23703     23705     23703     23706     23706     23707     23706     23708
     23706     23709     23709     23710     23709     23711     23709     23712
     23712     23713     23712     23714     23712     23715     23715     23716
     23715     23717     23715     23718     23718     23719     23718     23720
     23718     23721     23721     23722     23721     23723     23721     23724
     23724     23725     23724     23726     23724     23727     23675     23676
     23676     23678     23676     23677     23678     23679     23678     23680
     23678     23728     23728     23729     23728     23730     23728     23731
     23731     23732     23731     23733     23731     23734     23734     23735
     23734     23736     23734     23737     23737     23738     23737     23739
     23737     23740     23740     23741     23740     23742     23740     23743
     23743     23744     23743     23745     23743     23746     23746     23747
     23746     23748     23748     23749     23748     23750     23750     23751
     23750     23752     23750     23753     23753     23754     23753     23755
     23753     23756     23756     23757     23756     23758     23756     23759
     23759     23760     23759     23761     23759     23762     23762     23763
     23762     23764     23762     23765     23765     23766     23765     23767
     23765     23768     23768     23769     23768     23770     23768     23771
     23771     23772     23771     23773     23771     23774     23775     23779
     23775     23783     23775     23787     23779     23780     23779     23781
     23779     23782     23783     23784     23783     23785     23783     23786
     23787     23788     23787     23789     23787     23790     23775     23776
     23776     23777     23776     23778     23776     23791     23791     23792
     23791     23793     23791     23797     23798     23799     23797     23794
     23794     23798     23794     23795     23794     23796     23799     23800
     23799     23801     23799     23802     23802     23803     23802     23810
     23802     23804     23810     23811     23810     23812     23810     23813
     23804     23805     23805     23807     23805     23806     23807     23808
     23807     23809     23807     23819     23819     23820     23819     23821
     23819     23822     23822     23823     23822     23824     23822     23825
     23825     23826     23825     23827     23825     23828     23828     23829
     23828     23830     23828     23831     23831     23832     23831     23833
     23831     23834     23834     23835     23834     23836     23834     23837
     23837     23838     23837     23839     23839     23840     23839     23841
     23841     23842     23841     23843     23841     23844     23844     23845
     23844     23846     23844     23847     23847     23848     23847     23849
     23847     23850     23850     23851     23850     23852     23850     23853
     23853     23854     23853     23855     23853     23856     23856     23857
     23856     23858     23856     23859     23859     23860     23859     23861
     23859     23862     23862     23863     23862     23864     23862     23865
     23813     23814     23814     23816     23814     23815     23816     23817
     23816     23818     23816     23866     23866     23867     23866     23868
     23866     23869     23869     23870     23869     23871     23869     23872
     23872     23873     23872     23874     23872     23875     23875     23876
     23875     23877     23875     23878     23878     23879     23878     23880
     23878     23881     23881     23882     23881     23883     23881     23884
     23884     23885     23884     23886     23886     23887     23886     23888
     23888     23889     23888     23890     23888     23891     23891     23892
     23891     23893     23891     23894     23894     23895     23894     23896
     23894     23897     23897     23898     23897     23899     23897     23900
     23900     23901     23900     23902     23900     23903     23903     23904
     23903     23905     23903     23906     23906     23907     23906     23908
     23906     23909     23909     23910     23909     23911     23909     23912
     23913     23917     23913     23921     23913     23925     23917     23918
     23917     23919     23917     23920     23921     23922     23921     23923
     23921     23924     23925     23926     23925     23927     23925     23928
     23913     23914     23914     23915     23914     23916     23914     23929
     23929     23930     23929     23931     23929     23935     23936     23937
     23935     23932     23932     23936     23932     23933     23932     23934
     23937     23938     23937     23939     23937     23940     23940     23941
     23940     23948     23940     23942     23948     23949     23948     23950
     23948     23951     23942     23943     23943     23945     23943     23944
     23945     23946     23945     23947     23945     23957     23957     23958
     23957     23959     23957     23960     23960     23961     23960     23962
     23960     23963     23963     23964     23963     23965     23963     23966
     23966     23967     23966     23968     23966     23969     23969     23970
     23969     23971     23969     23972     23972     23973     23972     23974
     23972     23975     23975     23976     23975     23977     23977     23978
     23977     23979     23979     23980     23979     23981     23979     23982
     23982     23983     23982     23984     23982     23985     23985     23986
     23985     23987     23985     23988     23988     23989     23988     23990
     23988     23991     23991     23992     23991     23993     23991     23994
     23994     23995     23994     23996     23994     23997     23997     23998
     23997     23999     23997     24000     24000     24001     24000     24002
     24000     24003     23951     23952     23952     23954     23952     23953
     23954     23955     23954     23956     23954     24004     24004     24005
     24004     24006     24004     24007     24007     24008     24007     24009
     24007     24010     24010     24011     24010     24012     24010     24013
     24013     24014     24013     24015     24013     24016     24016     24017
     24016     24018     24016     24019     24019     24020     24019     24021
     24019     24022     24022     24023     24022     24024     24024     24025
     24024     24026     24026     24027     24026     24028     24026     24029
     24029     24030     24029     24031     24029     24032     24032     24033
     24032     24034     24032     24035     24035     24036     24035     24037
     24035     24038     24038     24039     24038     24040     24038     24041
     24041     24042     24041     24043     24041     24044     24044     24045
     24044     24046     24044     24047     24047     24048     24047     24049
     24047     24050     24126     24127     24126     24128     24126     24129
     24126     24123     24123     24124     24123     24125     24123     24120
     24120     24121     24120     24122     24120     24117     24117     24118
     24117     24119     24117     24114     24114     24115     24114     24116
     24114     24111     24111     24112     24111     24113     24111     24108
     24108     24109     24108     24110     24108     24105     24105     24106
     24105     24107     24105     24102     24102     24103     24102     24104
     24102     24099     24099     24100     24099     24101     24099     24096
     24096     24097     24096     24098     24096     24093     24093     24094
     24093     24095     24093     24090     24090     24091     24090     24092
     24090     24088     24088     24089     24086     24087     24086     24082
     24082     24083     24082     24084     24084     24085     24082     24080
     24080     24081     24080     24075     24075     24076     24075     24077
     24075     24073     24073     24070     24074     24070     24071     24070
     24072     24070     24074     24067     24067     24068     24067     24069
     24067     24064     24064     24065     24064     24066     24064     24051
     24051     24060     24051     24056     24051     24052     24060     24061
     24060     24062     24060     24063     24056     24057     24056     24058
     24056     24059     24052     24053     24052     24054     24052     24055
     24080     24078     24078     24079     24078     24130     24130     24132
     24132     24133     24132     24134     24132     24135     24135     24136
     24135     24137     24135     24138     24138     24139     24138     24140
     24138     24141     24141     24142     24141     24143     24141     24144
     24144     24145     24144     24146     24144     24147     24147     24148
     24147     24149     24147     24150     24150     24151     24150     24152
     24150     24153     24153     24154     24153     24155     24153     24156
     24156     24157     24156     24158     24156     24159     24159     24160
     24159     24161     24159     24162     24162     24163     24162     24164
     24162     24165     24165     24166     24165     24167     24165     24168
     24168     24169     24168     24170     24168     24171     24171     24172
     24171     24173     24171     24174     24174     24175     24174     24176
     24174     24177     24177     24178     24177     24179     24177     24180
     24180     24181     24180     24182     24180     24183     24183     24184
     24183     24185     24183     24186     24186     24187     24186     24188
     24186     24189     24189     24190     24189     24191     24189     24192
     24192     24193     24192     24194     24192     24195     24195     24196
     24195     24197     24195     24198     24086     24088     24130     24131
     24199     24201     24199     24200     24201     24202     24199     24245
     24245     24246     24245     24247     24245     24242     24242     24243
     24242     24244     24199     24203     24203     24204     24203     24205
     24203     24206     24206     24237     24237     24242     24237     24238
     24238     24239     24238     24240     24238     24241     24206     24207
     24207     24208     24207     24209     24209     24210     24209     24211
     24209     24212     24212     24213     24212     24235     24235     24236
     24235     24237     24212     24214     24214     24215     24214     24224
     24224     24229     24229     24230     24229     24231     24229     24232
     24232     24233     24232     24234     24232     24235     24224     24225
     24225     24226     24225     24227     24225     24228     24214     24216
     24216     24217     24216     24218     24216     24219     24219     24220
     24219     24221     24219     24222     24222     24223     24222     24224
     24222     24248     24248     24249     24248     24250     24250     24251
     24250     24252     24250     24253     24248     24254     24254     24255
     24254     24256     24254     24257     24257     24258     24257     24259
     24257     24260     24260     24261     24260     24262     24260     24263
     24263     24264     24263     24265     24265     24266     24265     24267
     24265     24268     24263     24269     24269     24270     24269     24271
     24269     24272     24273     24274     24273     24275     24273     24276
     24273     24277     24277     24278     24277     24279     24277     24280
     24280     24281     24280     24282     24280     24287     24287     24283
     24283     24286     24283     24284     24283     24285     24288     24289
     24288     24290     24288     24291     24288     24286     24291     24292
     24291     24299     24291     24293     24299     24300     24299     24301
     24299     24302     24293     24294     24294     24296     24294     24295
     24296     24297     24296     24298     24296     24308     24308     24309
     24308     24310     24308     24311     24311     24312     24311     24313
     24311     24314     24314     24315     24314     24316     24314     24317
     24317     24318     24317     24319     24317     24320     24320     24321
     24320     24322     24320     24323     24323     24324     24323     24325
     24323     24326     24326     24327     24326     24328     24328     24329
     24328     24330     24330     24331     24330     24332     24330     24333
     24333     24334     24333     24335     24333     24336     24336     24337
     24336     24338     24336     24339     24339     24340     24339     24341
     24339     24342     24342     24343     24342     24344     24342     24345
     24345     24346     24345     24347     24345     24348     24348     24349
     24348     24350     24348     24351     24351     24352     24351     24353
     24351     24354     24302     24303     24303     24305     24303     24304
     24305     24306     24305     24307     24305     24355     24355     24356
     24355     24357     24355     24358     24358     24359     24358     24360
     24358     24361     24361     24362     24361     24363     24361     24364
     24364     24365     24364     24366     24364     24367     24367     24368
     24367     24369     24367     24370     24370     24371     24370     24372
     24370     24373     24373     24374     24373     24375     24375     24376
     24375     24377     24377     24378     24377     24379     24377     24380
     24380     24381     24380     24382     24380     24383     24383     24384
     24383     24385     24383     24386     24386     24387     24386     24388
     24386     24389     24389     24390     24389     24391     24389     24392
     24392     24393     24392     24394     24392     24395     24395     24396
     24395     24397     24395     24398     24398     24399     24398     24400
     24398     24401     24477     24478     24477     24479     24477     24480
     24477     24474     24474     24475     24474     24476     24474     24471
     24471     24472     24471     24473     24471     24468     24468     24469
     24468     24470     24468     24465     24465     24466     24465     24467
     24465     24462     24462     24463     24462     24464     24462     24459
     24459     24460     24459     24461     24459     24456     24456     24457
     24456     24458     24456     24453     24453     24454     24453     24455
     24453     24450     24450     24451     24450     24452     24450     24447
     24447     24448     24447     24449     24447     24444     24444     24445
     24444     24446     24444     24441     24441     24442     24441     24443
     24441     24439     24439     24440     24437     24438     24437     24433
     24433     24434     24433     24435     24435     24436     24433     24431
     24431     24432     24431     24426     24426     24427     24426     24428
     24426     24424     24424     24421     24425     24421     24422     24421
     24423     24421     24425     24418     24418     24419     24418     24420
     24418     24415     24415     24416     24415     24417     24415     24402
     24402     24411     24402     24407     24402     24403     24411     24412
     24411     24413     24411     24414     24407     24408     24407     24409
     24407     24410     24403     24404     24403     24405     24403     24406
     24431     24429     24429     24430     24429     24481     24481     24483
     24483     24484     24483     24485     24483     24486     24486     24487
     24486     24488     24486     24489     24489     24490     24489     24491
     24489     24492     24492     24493     24492     24494     24492     24495
     24495     24496     24495     24497     24495     24498     24498     24499
     24498     24500     24498     24501     24501     24502     24501     24503
     24501     24504     24504     24505     24504     24506     24504     24507
     24507     24508     24507     24509     24507     24510     24510     24511
     24510     24512     24510     24513     24513     24514     24513     24515
     24513     24516     24516     24517     24516     24518     24516     24519
     24519     24520     24519     24521     24519     24522     24522     24523
     24522     24524     24522     24525     24525     24526     24525     24527
     24525     24528     24528     24529     24528     24530     24528     24531
     24531     24532     24531     24533     24531     24534     24534     24535
     24534     24536     24534     24537     24537     24538     24537     24539
     24537     24540     24540     24541     24540     24542     24540     24543
     24543     24544     24543     24545     24543     24546     24546     24547
     24546     24548     24546     24549     24437     24439     24481     24482
     24550     24552     24550     24551     24552     24553     24550     24596
     24596     24597     24596     24598     24596     24593     24593     24594
     24593     24595     24550     24554     24554     24555     24554     24556
     24554     24557     24557     24588     24588     24593     24588     24589
     24589     24590     24589     24591     24589     24592     24557     24558
     24558     24559     24558     24560     24560     24561     24560     24562
     24560     24563     24563     24564     24563     24586     24586     24587
     24586     24588     24563     24565     24565     24566     24565     24575
     24575     24580     24580     24581     24580     24582     24580     24583
     24583     24584     24583     24585     24583     24586     24575     24576
     24576     24577     24576     24578     24576     24579     24565     24567
     24567     24568     24567     24569     24567     24570     24570     24571
     24570     24572     24570     24573     24573     24574     24573     24575
     24573     24599     24599     24600     24599     24601     24601     24602
     24601     24603     24601     24604     24599     24605     24605     24606
     24605     24607     24605     24608     24608     24609     24608     24610
     24608     24611     24611     24612     24611     24613     24611     24614
     24614     24615     24614     24616     24616     24617     24616     24618
     24616     24619     24614     24620     24620     24621     24620     24622
     24620     24623     24699     24700     24699     24701     24699     24702
     24699     24696     24696     24697     24696     24698     24696     24693
     24693     24694     24693     24695     24693     24690     24690     24691
     24690     24692     24690     24687     24687     24688     24687     24689
     24687     24684     24684     24685     24684     24686     24684     24681
     24681     24682     24681     24683     24681     24678     24678     24679
     24678     24680     24678     24675     24675     24676     24675     24677
     24675     24672     24672     24673     24672     24674     24672     24669
     24669     24670     24669     24671     24669     24666     24666     24667
     24666     24668     24666     24663     24663     24664     24663     24665
     24663     24661     24661     24662     24659     24660     24659     24655
     24655     24656     24655     24657     24657     24658     24655     24653
     24653     24654     24653     24648     24648     24649     24648     24650
     24648     24646     24646     24643     24647     24643     24644     24643
     24645     24643     24647     24640     24640     24641     24640     24642
     24640     24637     24637     24638     24637     24639     24637     24624
     24624     24633     24624     24629     24624     24625     24633     24634
     24633     24635     24633     24636     24629     24630     24629     24631
     24629     24632     24625     24626     24625     24627     24625     24628
     24653     24651     24651     24652     24651     24703     24703     24705
     24705     24706     24705     24707     24705     24708     24708     24709
     24708     24710     24708     24711     24711     24712     24711     24713
     24711     24714     24714     24715     24714     24716     24714     24717
     24717     24718     24717     24719     24717     24720     24720     24721
     24720     24722     24720     24723     24723     24724     24723     24725
     24723     24726     24726     24727     24726     24728     24726     24729
     24729     24730     24729     24731     24729     24732     24732     24733
     24732     24734     24732     24735     24735     24736     24735     24737
     24735     24738     24738     24739     24738     24740     24738     24741
     24741     24742     24741     24743     24741     24744     24744     24745
     24744     24746     24744     24747     24747     24748     24747     24749
     24747     24750     24750     24751     24750     24752     24750     24753
     24753     24754     24753     24755     24753     24756     24756     24757
     24756     24758     24756     24759     24759     24760     24759     24761
     24759     24762     24762     24763     24762     24764     24762     24765
     24765     24766     24765     24767     24765     24768     24768     24769
     24768     24770     24768     24771     24659     24661     24703     24704
     24772     24773     24772     24774     24772     24775     24772     24776
     24776     24777     24776     24778     24776     24779     24779     24780
     24779     24781     24779     24786     24786     24782     24782     24785
     24782     24783     24782     24784     24787     24788     24787     24789
     24787     24790     24787     24785     24790     24791     24790     24798
     24790     24792     24798     24799     24798     24800     24798     24801
     24792     24793     24793     24795     24793     24794     24795     24796
     24795     24797     24795     24807     24807     24808     24807     24809
     24807     24810     24810     24811     24810     24812     24810     24813
     24813     24814     24813     24815     24813     24816     24816     24817
     24816     24818     24816     24819     24819     24820     24819     24821
     24819     24822     24822     24823     24822     24824     24822     24825
     24825     24826     24825     24827     24827     24828     24827     24829
     24829     24830     24829     24831     24829     24832     24832     24833
     24832     24834     24832     24835     24835     24836     24835     24837
     24835     24838     24838     24839     24838     24840     24838     24841
     24841     24842     24841     24843     24841     24844     24844     24845
     24844     24846     24844     24847     24847     24848     24847     24849
     24847     24850     24850     24851     24850     24852     24850     24853
     24801     24802     24802     24804     24802     24803     24804     24805
     24804     24806     24804     24854     24854     24855     24854     24856
     24854     24857     24857     24858     24857     24859     24857     24860
     24860     24861     24860     24862     24860     24863     24863     24864
     24863     24865     24863     24866     24866     24867     24866     24868
     24866     24869     24869     24870     24869     24871     24869     24872
     24872     24873     24872     24874     24874     24875     24874     24876
     24876     24877     24876     24878     24876     24879     24879     24880
     24879     24881     24879     24882     24882     24883     24882     24884
     24882     24885     24885     24886     24885     24887     24885     24888
     24888     24889     24888     24890     24888     24891     24891     24892
     24891     24893     24891     24894     24894     24895     24894     24896
     24894     24897     24897     24898     24897     24899     24897     24900

     48040 !NTHETA: angles
         1         5         6         1         5         7         1         5         8
         2         1         3         2         1         4         2         1         5
         3         1         4         3         1         5         4         1         5
         5         8         9         5         8        10         5         8        15
         6         5         7         6         5         8         7         5         8
         8        15        11         9         8        10         9         8        15
        10         8        15        11        14        16        12        11        13
        12        11        14        12        11        15        13        11        14
        13        11        15        14        11        15        14        16        17
        14        16        18        14        16        19        16        19        20
        16        19        21        16        19        27        17        16        18
        17        16        19        18        16        19        19        21        22
        19        27        28        19        27        29        19        27        30
        20        19        21        20        19        27        21        19        27
        21        22        23        21        22        24        22        24        25
        22        24        26        22        24        36        23        22        24
        24        36        37        24        36        38        24        36        39
        25        24        26        25        24        36        26        24        36
        27        30        31        28        27        29        28        27        30
        29        27        30        30        31        32        30        31        33
        31        33        34        31        33        35        31        33        83
        32        31        33        33        83        84        33        83        85
        33        83        86        34        33        35        34        33        83
        35        33        83        36        39        40        36        39        41
        36        39        42        37        36        38        37        36        39
        38        36        39        39        42        43        39        42        44
        39        42        45        40        39        41        40        39        42
        41        39        42        42        45        46        42        45        47
        42        45        48        43        42        44        43        42        45
        44        42        45        45        48        49        45        48        50
        45        48        51        46        45        47        46        45        48
        47        45        48        48        51        52        48        51        53
        48        51        54        49        48        50        49        48        51
        50        48        51        51        54        55        51        54        56
        52        51        53        52        51        54        53        51        54
        54        56        57        54        56        58        55        54        56
        56        58        59        56        58        60        56        58        61
        57        56        58        58        61        62        58        61        63
        58        61        64        59        58        60        59        58        61
        60        58        61        61        64        65        61        64        66
        61        64        67        62        61        63        62        61        64
        63        61        64        64        67        68        64        67        69
        64        67        70        65        64        66        65        64        67
        66        64        67        67        70        71        67        70        72
        67        70        73        68        67        69        68        67        70
        69        67        70        70        73        74        70        73        75
        70        73        76        71        70        72        71        70        73
        72        70        73        73        76        77        73        76        78
        73        76        79        74        73        75        74        73        76
        75        73        76        76        79        80        76        79        81
        76        79        82        77        76        78        77        76        79
        78        76        79        80        79        81        80        79        82
        81        79        82        83        86        87        83        86        88
        83        86        89        84        83        85        84        83        86
        85        83        86        86        89        90        86        89        91
        86        89        92        87        86        88        87        86        89
        88        86        89        89        92        93        89        92        94
        89        92        95        90        89        91        90        89        92
        91        89        92        92        95        96        92        95        97
        92        95        98        93        92        94        93        92        95
        94        92        95        95        98        99        95        98       100
        95        98       101        96        95        97        96        95        98
        97        95        98        98       101       102        98       101       103
        99        98       100        99        98       101       100        98       101
       101       103       104       101       103       105       102       101       103
       103       105       106       103       105       107       103       105       108
       104       103       105       105       108       109       105       108       110
       105       108       111       106       105       107       106       105       108
       107       105       108       108       111       112       108       111       113
       108       111       114       109       108       110       109       108       111
       110       108       111       111       114       115       111       114       116
       111       114       117       112       111       113       112       111       114
       113       111       114       114       117       118       114       117       119
       114       117       120       115       114       116       115       114       117
       116       114       117       117       120       121       117       120       122
       117       120       123       118       117       119       118       117       120
       119       117       120       120       123       124       120       123       125
       120       123       126       121       120       122       121       120       123
       122       120       123       123       126       127       123       126       128
       123       126       129       124       123       125       124       123       126
       125       123       126       127       126       128       127       126       129
       128       126       129       130       131       132       130       131       133
       130       131       134       130       135       136       130       135       137
       130       135       138       130       139       140       130       139       141
       130       139       142       130       143       144       130       143       145
       130       143       146       131       130       135       131       130       139
       131       130       143       132       131       133       132       131       134
       133       131       134       135       130       139       135       130       143
       136       135       137       136       135       138       137       135       138
       139       130       143       140       139       141       140       139       142
       141       139       142       143       146       147       143       146       148
       143       146       153       144       143       145       144       143       146
       145       143       146       146       153       149       147       146       148
       147       146       153       148       146       153       149       152       154
       150       149       151       150       149       152       150       149       153
       151       149       152       151       149       153       152       149       153
       152       154       155       152       154       156       152       154       159
       154       159       157       154       159       160       154       159       161
       155       154       156       155       154       159       156       154       159
       157       159       160       157       159       161       157       209       210
       157       209       211       158       157       159       158       157       209
       159       157       209       159       161       162       159       161       163
       159       161       165       160       159       161       161       163       164
       161       165       166       161       165       167       162       161       163
       162       161       165       163       161       165       165       167       168
       165       167       169       166       165       167       167       169       170
       167       169       171       167       169       172       168       167       169
       169       172       173       169       172       174       169       172       175
       170       169       171       170       169       172       171       169       172
       172       175       176       172       175       177       172       175       178
       173       172       174       173       172       175       174       172       175
       175       178       179       175       178       180       175       178       181
       176       175       177       176       175       178       177       175       178
       178       181       182       178       181       183       178       181       184
       179       178       180       179       178       181       180       178       181
       181       184       185       181       184       186       181       184       187
       182       181       183       182       181       184       183       181       184
       184       187       188       184       187       189       184       187       190
       185       184       186       185       184       187       186       184       187
       187       190       191       187       190       192       187       190       193
       188       187       189       188       187       190       189       187       190
       190       193       194       190       193       195       190       193       196
       191       190       192       191       190       193       192       190       193
       193       196       197       193       196       198       193       196       199
       194       193       195       194       193       196       195       193       196
       196       199       200       196       199       201       196       199       202
       197       196       198       197       196       199       198       196       199
       199       202       203       199       202       204       199       202       205
       200       199       201       200       199       202       201       199       202
       202       205       206       202       205       207       202       205       208
       203       202       204       203       202       205       204       202       205
       206       205       207       206       205       208       207       205       208
       209       211       212       209       211       213       209       211       214
       210       209       211       211       214       215       211       214       216
       211       214       217       212       211       213       212       211       214
       213       211       214       214       217       218       214       217       219
       214       217       220       215       214       216       215       214       217
       216       214       217       217       220       221       217       220       222
       217       220       223       218       217       219       218       217       220
       219       217       220       220       223       224       220       223       225
       220       223       226       221       220       222       221       220       223
       222       220       223       223       226       227       223       226       228
       223       226       229       224       223       225       224       223       226
       225       223       226       226       229       230       226       229       231
       226       229       232       227       226       228       227       226       229
       228       226       229       229       232       233       229       232       234
       229       232       235       230       229       231       230       229       232
       231       229       232       232       235       236       232       235       237
       232       235       238       233       232       234       233       232       235
       234       232       235       235       238       239       235       238       240
       235       238       241       236       235       237       236       235       238
       237       235       238       238       241       242       238       241       243
       238       241       244       239       238       240       239       238       241
       240       238       241       241       244       245       241       244       246
       241       244       247       242       241       243       242       241       244
       243       241       244       244       247       248       244       247       249
       244       247       250       245       244       246       245       244       247
       246       244       247       247       250       251       247       250       252
       247       250       253       248       247       249       248       247       250
       249       247       250       250       253       254       250       253       255
       250       253       256       251       250       252       251       250       253
       252       250       253       253       256       257       253       256       258
       253       256       259       254       253       255       254       253       256
       255       253       256       256       259       260       256       259       261
       256       259       262       257       256       258       257       256       259
       258       256       259       259       262       263       259       262       264
       259       262       265       260       259       261       260       259       262
       261       259       262       262       265       266       262       265       267
       262       265       268       263       262       264       263       262       265
       264       262       265       265       268       269       265       268       270
       265       268       271       266       265       267       266       265       268
       267       265       268       268       271       272       268       271       273
       268       271       274       269       268       270       269       268       271
       270       268       271       271       274       275       271       274       276
       271       274       277       272       271       273       272       271       274
       273       271       274       275       274       276       275       274       277
       276       274       277       278       279       280       278       279       281
       278       279       282       278       283       284       278       283       285
       278       283       286       278       287       288       278       287       289
       278       287       290       278       291       292       278       291       293
       278       291       294       279       278       283       279       278       287
       279       278       291       280       279       281       280       279       282
       281       279       282       283       278       287       283       278       291
       284       283       285       284       283       286       285       283       286
       287       278       291       288       287       289       288       287       290
       289       287       290       291       294       295       291       294       296
       291       294       301       292       291       293       292       291       294
       293       291       294       294       301       297       295       294       296
       295       294       301       296       294       301       297       300       302
       298       297       299       298       297       300       298       297       301
       299       297       300       299       297       301       300       297       301
       300       302       303       300       302       304       300       302       307
       302       307       305       302       307       308       302       307       309
       303       302       304       303       302       307       304       302       307
       305       307       308       305       307       309       305       357       358
       305       357       359       306       305       307       306       305       357
       307       305       357       307       309       310       307       309       311
       307       309       313       308       307       309       309       311       312
       309       313       314       309       313       315       310       309       311
       310       309       313       311       309       313       313       315       316
       313       315       317       314       313       315       315       317       318
       315       317       319       315       317       320       316       315       317
       317       320       321       317       320       322       317       320       323
       318       317       319       318       317       320       319       317       320
       320       323       324       320       323       325       320       323       326
       321       320       322       321       320       323       322       320       323
       323       326       327       323       326       328       323       326       329
       324       323       325       324       323       326       325       323       326
       326       329       330       326       329       331       326       329       332
       327       326       328       327       326       329       328       326       329
       329       332       333       329       332       334       329       332       335
       330       329       331       330       329       332       331       329       332
       332       335       336       332       335       337       332       335       338
       333       332       334       333       332       335       334       332       335
       335       338       339       335       338       340       335       338       341
       336       335       337       336       335       338       337       335       338
       338       341       342       338       341       343       338       341       344
       339       338       340       339       338       341       340       338       341
       341       344       345       341       344       346       341       344       347
       342       341       343       342       341       344       343       341       344
       344       347       348       344       347       349       344       347       350
       345       344       346       345       344       347       346       344       347
       347       350       351       347       350       352       347       350       353
       348       347       349       348       347       350       349       347       350
       350       353       354       350       353       355       350       353       356
       351       350       352       351       350       353       352       350       353
       354       353       355       354       353       356       355       353       356
       357       359       360       357       359       361       357       359       362
       358       357       359       359       362       363       359       362       364
       359       362       365       360       359       361       360       359       362
       361       359       362       362       365       366       362       365       367
       362       365       368       363       362       364       363       362       365
       364       362       365       365       368       369       365       368       370
       365       368       371       366       365       367       366       365       368
       367       365       368       368       371       372       368       371       373
       368       371       374       369       368       370       369       368       371
       370       368       371       371       374       375       371       374       376
       371       374       377       372       371       373       372       371       374
       373       371       374       374       377       378       374       377       379
       374       377       380       375       374       376       375       374       377
       376       374       377       377       380       381       377       380       382
       377       380       383       378       377       379       378       377       380
       379       377       380       380       383       384       380       383       385
       380       383       386       381       380       382       381       380       383
       382       380       383       383       386       387       383       386       388
       383       386       389       384       383       385       384       383       386
       385       383       386       386       389       390       386       389       391
       386       389       392       387       386       388       387       386       389
       388       386       389       389       392       393       389       392       394
       389       392       395       390       389       391       390       389       392
       391       389       392       392       395       396       392       395       397
       392       395       398       393       392       394       393       392       395
       394       392       395       395       398       399       395       398       400
       395       398       401       396       395       397       396       395       398
       397       395       398       398       401       402       398       401       403
       398       401       404       399       398       400       399       398       401
       400       398       401       401       404       405       401       404       406
       401       404       407       402       401       403       402       401       404
       403       401       404       404       407       408       404       407       409
       404       407       410       405       404       406       405       404       407
       406       404       407       407       410       411       407       410       412
       407       410       413       408       407       409       408       407       410
       409       407       410       410       413       414       410       413       415
       410       413       416       411       410       412       411       410       413
       412       410       413       413       416       417       413       416       418
       413       416       419       414       413       415       414       413       416
       415       413       416       416       419       420       416       419       421
       416       419       422       417       416       418       417       416       419
       418       416       419       419       422       423       419       422       424
       419       422       425       420       419       421       420       419       422
       421       419       422       423       422       424       423       422       425
       424       422       425       426       428       429       426       430       431
       426       430       432       426       430       433       426       472       469
       426       472       473       426       472       474       427       426       428
       427       426       430       427       426       472       428       426       430
       428       426       472       430       426       472       430       433       434
       430       433       464       431       430       432       431       430       433
       432       430       433       433       434       435       433       434       436
       433       464       462       433       464       465       433       464       469
       434       433       464       434       436       437       434       436       438
       434       436       439       435       434       436       436       439       440
       436       439       441       436       439       462       437       436       438
       437       436       439       438       436       439       439       441       442
       439       441       443       439       441       451       439       462       459
       439       462       463       439       462       464       440       439       441
       440       439       462       441       439       462       441       443       444
       441       443       445       441       443       446       441       451       449
       441       451       452       441       451       456       442       441       443
       442       441       451       443       441       451       443       446       447
       443       446       448       443       446       449       444       443       445
       444       443       446       445       443       446       446       449       450
       446       449       451       446       449       475       447       446       448
       447       446       449       448       446       449       449       451       452
       449       451       456       449       475       476       449       475       477
       449       475       481       450       449       451       450       449       475
       451       449       475       451       452       453       451       452       454
       451       452       455       451       456       457       451       456       458
       451       456       459       452       451       456       453       452       454
       453       452       455       454       452       455       456       459       460
       456       459       461       456       459       462       457       456       458
       457       456       459       458       456       459       459       462       463
       459       462       464       460       459       461       460       459       462
       461       459       462       462       464       465       462       464       469
       463       462       464       464       465       466       464       465       467
       464       465       468       464       469       470       464       469       471
       464       469       472       465       464       469       466       465       467
       466       465       468       467       465       468       469       472       473
       469       472       474       470       469       471       470       469       472
       471       469       472       473       472       474       475       477       478
       475       477       479       475       477       480       475       481       482
       475       481       483       475       481       484       476       475       477
       476       475       481       477       475       481       478       477       479
       478       477       480       479       477       480       481       484       485
       481       484       486       481       484       487       482       481       483
       482       481       484       483       481       484       484       487       488
       484       487       489       484       487       490       485       484       486
       485       484       487       486       484       487       487       490       491
       487       490       492       487       490       496       488       487       489
       488       487       490       489       487       490       490       492       493
       490       492       494       490       492       495       490       496       497
       490       496       498       490       496       499       491       490       492
       491       490       496       492       490       496       493       492       494
       493       492       495       494       492       495       497       496       498
       497       496       499       498       496       499       500       504       505
       500       504       506       500       504       507       501       500       502
       501       500       503       501       500       504       502       500       503
       502       500       504       503       500       504       504       507       508
       504       507       509       504       507       514       505       504       506
       505       504       507       506       504       507       507       514       510
       508       507       509       508       507       514       509       507       514
       510       513       515       511       510       512       511       510       513
       511       510       514       512       510       513       512       510       514
       513       510       514       513       515       516       513       515       517
       513       515       518       515       518       519       515       518       520
       515       518       526       516       515       517       516       515       518
       517       515       518       518       520       521       518       526       527
       518       526       528       518       526       529       519       518       520
       519       518       526       520       518       526       520       521       522
       520       521       523       521       523       524       521       523       525
       521       523       535       522       521       523       523       535       536
       523       535       537       523       535       538       524       523       525
       524       523       535       525       523       535       526       529       530
       527       526       528       527       526       529       528       526       529
       529       530       531       529       530       532       530       532       533
       530       532       534       530       532       582       531       530       532
       532       582       583       532       582       584       532       582       585
       533       532       534       533       532       582       534       532       582
       535       538       539       535       538       540       535       538       541
       536       535       537       536       535       538       537       535       538
       538       541       542       538       541       543       538       541       544
       539       538       540       539       538       541       540       538       541
       541       544       545       541       544       546       541       544       547
       542       541       543       542       541       544       543       541       544
       544       547       548       544       547       549       544       547       550
       545       544       546       545       544       547       546       544       547
       547       550       551       547       550       552       547       550       553
       548       547       549       548       547       550       549       547       550
       550       553       554       550       553       555       551       550       552
       551       550       553       552       550       553       553       555       556
       553       555       557       554       553       555       555       557       558
       555       557       559       555       557       560       556       555       557
       557       560       561       557       560       562       557       560       563
       558       557       559       558       557       560       559       557       560
       560       563       564       560       563       565       560       563       566
       561       560       562       561       560       563       562       560       563
       563       566       567       563       566       568       563       566       569
       564       563       565       564       563       566       565       563       566
       566       569       570       566       569       571       566       569       572
       567       566       568       567       566       569       568       566       569
       569       572       573       569       572       574       569       572       575
       570       569       571       570       569       572       571       569       572
       572       575       576       572       575       577       572       575       578
       573       572       574       573       572       575       574       572       575
       575       578       579       575       578       580       575       578       581
       576       575       577       576       575       578       577       575       578
       579       578       580       579       578       581       580       578       581
       582       585       586       582       585       587       582       585       588
       583       582       584       583       582       585       584       582       585
       585       588       589       585       588       590       585       588       591
       586       585       587       586       585       588       587       585       588
       588       591       592       588       591       593       588       591       594
       589       588       590       589       588       591       590       588       591
       591       594       595       591       594       596       591       594       597
       592       591       593       592       591       594       593       591       594
       594       597       598       594       597       599       594       597       600
       595       594       596       595       594       597       596       594       597
       597       600       601       597       600       602       598       597       599
       598       597       600       599       597       600       600       602       603
       600       602       604       601       600       602       602       604       605
       602       604       606       602       604       607       603       602       604
       604       607       608       604       607       609       604       607       610
       605       604       606       605       604       607       606       604       607
       607       610       611       607       610       612       607       610       613
       608       607       609       608       607       610       609       607       610
       610       613       614       610       613       615       610       613       616
       611       610       612       611       610       613       612       610       613
       613       616       617       613       616       618       613       616       619
       614       613       615       614       613       616       615       613       616
       616       619       620       616       619       621       616       619       622
       617       616       618       617       616       619       618       616       619
       619       622       623       619       622       624       619       622       625
       620       619       621       620       619       622       621       619       622
       622       625       626       622       625       627       622       625       628
       623       622       624       623       622       625       624       622       625
       626       625       627       626       625       628       627       625       628
       629       630       631       629       630       632       629       630       645
       629       633       634       629       633       635       629       633       636
       629       637       638       629       637       639       629       637       640
       629       641       642       629       641       643       629       641       644
       630       629       633       630       629       637       630       629       641
       630       645       646       630       645       647       630       645       651
       631       630       632       631       630       645       632       630       645
       633       629       637       633       629       641       634       633       635
       634       633       636       635       633       636       637       629       641
       638       637       639       638       637       640       639       637       640
       642       641       643       642       641       644       643       641       644
       645       651       648       646       645       647       646       645       651
       647       645       651       648       652       653       649       648       650
       649       648       651       649       648       652       650       648       651
       650       648       652       651       648       652       652       653       654
       652       653       655       652       653       656       653       656       657
       653       656       658       653       656       664       654       653       655
       654       653       656       655       653       656       656       658       659
       656       664       665       656       664       666       656       664       667
       657       656       658       657       656       664       658       656       664
       658       659       660       658       659       661       659       661       662
       659       661       663       659       661       673       660       659       661
       661       673       674       661       673       675       661       673       676
       662       661       663       662       661       673       663       661       673
       664       667       668       665       664       666       665       664       667
       666       664       667       667       668       669       667       668       670
       668       670       671       668       670       672       668       670       720
       669       668       670       670       720       721       670       720       722
       670       720       723       671       670       672       671       670       720
       672       670       720       673       676       677       673       676       678
       673       676       679       674       673       675       674       673       676
       675       673       676       676       679       680       676       679       681
       676       679       682       677       676       678       677       676       679
       678       676       679       679       682       683       679       682       684
       679       682       685       680       679       681       680       679       682
       681       679       682       682       685       686       682       685       687
       682       685       688       683       682       684       683       682       685
       684       682       685       685       688       689       685       688       690
       685       688       691       686       685       687       686       685       688
       687       685       688       688       691       692       688       691       693
       689       688       690       689       688       691       690       688       691
       691       693       694       691       693       695       692       691       693
       693       695       696       693       695       697       693       695       698
       694       693       695       695       698       699       695       698       700
       695       698       701       696       695       697       696       695       698
       697       695       698       698       701       702       698       701       703
       698       701       704       699       698       700       699       698       701
       700       698       701       701       704       705       701       704       706
       701       704       707       702       701       703       702       701       704
       703       701       704       704       707       708       704       707       709
       704       707       710       705       704       706       705       704       707
       706       704       707       707       710       711       707       710       712
       707       710       713       708       707       709       708       707       710
       709       707       710       710       713       714       710       713       715
       710       713       716       711       710       712       711       710       713
       712       710       713       713       716       717       713       716       718
       713       716       719       714       713       715       714       713       716
       715       713       716       717       716       718       717       716       719
       718       716       719       720       723       724       720       723       725
       720       723       726       721       720       722       721       720       723
       722       720       723       723       726       727       723       726       728
       723       726       729       724       723       725       724       723       726
       725       723       726       726       729       730       726       729       731
       726       729       732       727       726       728       727       726       729
       728       726       729       729       732       733       729       732       734
       729       732       735       730       729       731       730       729       732
       731       729       732       732       735       736       732       735       737
       732       735       738       733       732       734       733       732       735
       734       732       735       735       738       739       735       738       740
       736       735       737       736       735       738       737       735       738
       738       740       741       738       740       742       739       738       740
       740       742       743       740       742       744       740       742       745
       741       740       742       742       745       746       742       745       747
       742       745       748       743       742       744       743       742       745
       744       742       745       745       748       749       745       748       750
       745       748       751       746       745       747       746       745       748
       747       745       748       748       751       752       748       751       753
       748       751       754       749       748       750       749       748       751
       750       748       751       751       754       755       751       754       756
       751       754       757       752       751       753       752       751       754
       753       751       754       754       757       758       754       757       759
       754       757       760       755       754       756       755       754       757
       756       754       757       757       760       761       757       760       762
       757       760       763       758       757       759       758       757       760
       759       757       760       760       763       764       760       763       765
       760       763       766       761       760       762       761       760       763
       762       760       763       764       763       765       764       763       766
       765       763       766       767       768       769       767       768       770
       767       768       783       767       771       772       767       771       773
       767       771       774       767       775       776       767       775       777
       767       775       778       767       779       780       767       779       781
       767       779       782       768       767       771       768       767       775
       768       767       779       768       783       784       768       783       785
       768       783       789       769       768       770       769       768       783
       770       768       783       771       767       775       771       767       779
       772       771       773       772       771       774       773       771       774
       775       767       779       776       775       777       776       775       778
       777       775       778       780       779       781       780       779       782
       781       779       782       783       789       786       784       783       785
       784       783       789       785       783       789       786       790       791
       787       786       788       787       786       789       787       786       790
       788       786       789       788       786       790       789       786       790
       790       791       792       790       791       793       790       791       794
       791       794       795       791       794       796       791       794       802
       792       791       793       792       791       794       793       791       794
       794       796       797       794       802       803       794       802       804
       794       802       805       795       794       796       795       794       802
       796       794       802       796       797       798       796       797       799
       797       799       800       797       799       801       797       799       811
       798       797       799       799       811       812       799       811       813
       799       811       814       800       799       801       800       799       811
       801       799       811       802       805       806       803       802       804
       803       802       805       804       802       805       805       806       807
       805       806       808       806       808       809       806       808       810
       806       808       858       807       806       808       808       858       859
       808       858       860       808       858       861       809       808       810
       809       808       858       810       808       858       811       814       815
       811       814       816       811       814       817       812       811       813
       812       811       814       813       811       814       814       817       818
       814       817       819       814       817       820       815       814       816
       815       814       817       816       814       817       817       820       821
       817       820       822       817       820       823       818       817       819
       818       817       820       819       817       820       820       823       824
       820       823       825       820       823       826       821       820       822
       821       820       823       822       820       823       823       826       827
       823       826       828       823       826       829       824       823       825
       824       823       826       825       823       826       826       829       830
       826       829       831       827       826       828       827       826       829
       828       826       829       829       831       832       829       831       833
       830       829       831       831       833       834       831       833       835
       831       833       836       832       831       833       833       836       837
       833       836       838       833       836       839       834       833       835
       834       833       836       835       833       836       836       839       840
       836       839       841       836       839       842       837       836       838
       837       836       839       838       836       839       839       842       843
       839       842       844       839       842       845       840       839       841
       840       839       842       841       839       842       842       845       846
       842       845       847       842       845       848       843       842       844
       843       842       845       844       842       845       845       848       849
       845       848       850       845       848       851       846       845       847
       846       845       848       847       845       848       848       851       852
       848       851       853       848       851       854       849       848       850
       849       848       851       850       848       851       851       854       855
       851       854       856       851       854       857       852       851       853
       852       851       854       853       851       854       855       854       856
       855       854       857       856       854       857       858       861       862
       858       861       863       858       861       864       859       858       860
       859       858       861       860       858       861       861       864       865
       861       864       866       861       864       867       862       861       863
       862       861       864       863       861       864       864       867       868
       864       867       869       864       867       870       865       864       866
       865       864       867       866       864       867       867       870       871
       867       870       872       867       870       873       868       867       869
       868       867       870       869       867       870       870       873       874
       870       873       875       870       873       876       871       870       872
       871       870       873       872       870       873       873       876       877
       873       876       878       874       873       875       874       873       876
       875       873       876       876       878       879       876       878       880
       877       876       878       878       880       881       878       880       882
       878       880       883       879       878       880       880       883       884
       880       883       885       880       883       886       881       880       882
       881       880       883       882       880       883       883       886       887
       883       886       888       883       886       889       884       883       885
       884       883       886       885       883       886       886       889       890
       886       889       891       886       889       892       887       886       888
       887       886       889       888       886       889       889       892       893
       889       892       894       889       892       895       890       889       891
       890       889       892       891       889       892       892       895       896
       892       895       897       892       895       898       893       892       894
       893       892       895       894       892       895       895       898       899
       895       898       900       895       898       901       896       895       897
       896       895       898       897       895       898       898       901       902
       898       901       903       898       901       904       899       898       900
       899       898       901       900       898       901       902       901       903
       902       901       904       903       901       904       905       906       907
       905       906       908       905       906       921       905       909       910
       905       909       911       905       909       912       905       913       914
       905       913       915       905       913       916       905       917       918
       905       917       919       905       917       920       906       905       909
       906       905       913       906       905       917       906       921       922
       906       921       923       906       921       927       907       906       908
       907       906       921       908       906       921       909       905       913
       909       905       917       910       909       911       910       909       912
       911       909       912       913       905       917       914       913       915
       914       913       916       915       913       916       918       917       919
       918       917       920       919       917       920       921       927       924
       922       921       923       922       921       927       923       921       927
       924       928       929       925       924       926       925       924       927
       925       924       928       926       924       927       926       924       928
       927       924       928       928       929       930       928       929       931
       928       929       932       929       932       933       929       932       934
       929       932       940       930       929       931       930       929       932
       931       929       932       932       934       935       932       940       941
       932       940       942       932       940       943       933       932       934
       933       932       940       934       932       940       934       935       936
       934       935       937       935       937       938       935       937       939
       935       937       949       936       935       937       937       949       950
       937       949       951       937       949       952       938       937       939
       938       937       949       939       937       949       940       943       944
       941       940       942       941       940       943       942       940       943
       943       944       945       943       944       946       944       946       947
       944       946       948       944       946       996       945       944       946
       946       996       997       946       996       998       946       996       999
       947       946       948       947       946       996       948       946       996
       949       952       953       949       952       954       949       952       955
       950       949       951       950       949       952       951       949       952
       952       955       956       952       955       957       952       955       958
       953       952       954       953       952       955       954       952       955
       955       958       959       955       958       960       955       958       961
       956       955       957       956       955       958       957       955       958
       958       961       962       958       961       963       958       961       964
       959       958       960       959       958       961       960       958       961
       961       964       965       961       964       966       961       964       967
       962       961       963       962       961       964       963       961       964
       964       967       968       964       967       969       965       964       966
       965       964       967       966       964       967       967       969       970
       967       969       971       968       967       969       969       971       972
       969       971       973       969       971       974       970       969       971
       971       974       975       971       974       976       971       974       977
       972       971       973       972       971       974       973       971       974
       974       977       978       974       977       979       974       977       980
       975       974       976       975       974       977       976       974       977
       977       980       981       977       980       982       977       980       983
       978       977       979       978       977       980       979       977       980
       980       983       984       980       983       985       980       983       986
       981       980       982       981       980       983       982       980       983
       983       986       987       983       986       988       983       986       989
       984       983       985       984       983       986       985       983       986
       986       989       990       986       989       991       986       989       992
       987       986       988       987       986       989       988       986       989
       989       992       993       989       992       994       989       992       995
       990       989       991       990       989       992       991       989       992
       993       992       994       993       992       995       994       992       995
       996       999      1000       996       999      1001       996       999      1002
       997       996       998       997       996       999       998       996       999
       999      1002      1003       999      1002      1004       999      1002      1005
      1000       999      1001      1000       999      1002      1001       999      1002
      1002      1005      1006      1002      1005      1007      1002      1005      1008
      1003      1002      1004      1003      1002      1005      1004      1002      1005
      1005      1008      1009      1005      1008      1010      1005      1008      1011
      1006      1005      1007      1006      1005      1008      1007      1005      1008
      1008      1011      1012      1008      1011      1013      1008      1011      1014
      1009      1008      1010      1009      1008      1011      1010      1008      1011
      1011      1014      1015      1011      1014      1016      1012      1011      1013
      1012      1011      1014      1013      1011      1014      1014      1016      1017
      1014      1016      1018      1015      1014      1016      1016      1018      1019
      1016      1018      1020      1016      1018      1021      1017      1016      1018
      1018      1021      1022      1018      1021      1023      1018      1021      1024
      1019      1018      1020      1019      1018      1021      1020      1018      1021
      1021      1024      1025      1021      1024      1026      1021      1024      1027
      1022      1021      1023      1022      1021      1024      1023      1021      1024
      1024      1027      1028      1024      1027      1029      1024      1027      1030
      1025      1024      1026      1025      1024      1027      1026      1024      1027
      1027      1030      1031      1027      1030      1032      1027      1030      1033
      1028      1027      1029      1028      1027      1030      1029      1027      1030
      1030      1033      1034      1030      1033      1035      1030      1033      1036
      1031      1030      1032      1031      1030      1033      1032      1030      1033
      1033      1036      1037      1033      1036      1038      1033      1036      1039
      1034      1033      1035      1034      1033      1036      1035      1033      1036
      1036      1039      1040      1036      1039      1041      1036      1039      1042
      1037      1036      1038      1037      1036      1039      1038      1036      1039
      1040      1039      1041      1040      1039      1042      1041      1039      1042
      1043      1047      1048      1043      1047      1049      1043      1047      1050
      1044      1043      1045      1044      1043      1046      1044      1043      1047
      1045      1043      1046      1045      1043      1047      1046      1043      1047
      1047      1050      1051      1047      1050      1052      1047      1050      1057
      1048      1047      1049      1048      1047      1050      1049      1047      1050
      1050      1057      1053      1051      1050      1052      1051      1050      1057
      1052      1050      1057      1053      1056      1058      1054      1053      1055
      1054      1053      1056      1054      1053      1057      1055      1053      1056
      1055      1053      1057      1056      1053      1057      1056      1058      1059
      1056      1058      1060      1056      1058      1061      1058      1061      1062
      1058      1061      1063      1058      1061      1069      1059      1058      1060
      1059      1058      1061      1060      1058      1061      1061      1063      1064
      1061      1069      1070      1061      1069      1071      1061      1069      1072
      1062      1061      1063      1062      1061      1069      1063      1061      1069
      1063      1064      1065      1063      1064      1066      1064      1066      1067
      1064      1066      1068      1064      1066      1078      1065      1064      1066
      1066      1078      1079      1066      1078      1080      1066      1078      1081
      1067      1066      1068      1067      1066      1078      1068      1066      1078
      1069      1072      1073      1070      1069      1071      1070      1069      1072
      1071      1069      1072      1072      1073      1074      1072      1073      1075
      1073      1075      1076      1073      1075      1077      1073      1075      1125
      1074      1073      1075      1075      1125      1126      1075      1125      1127
      1075      1125      1128      1076      1075      1077      1076      1075      1125
      1077      1075      1125      1078      1081      1082      1078      1081      1083
      1078      1081      1084      1079      1078      1080      1079      1078      1081
      1080      1078      1081      1081      1084      1085      1081      1084      1086
      1081      1084      1087      1082      1081      1083      1082      1081      1084
      1083      1081      1084      1084      1087      1088      1084      1087      1089
      1084      1087      1090      1085      1084      1086      1085      1084      1087
      1086      1084      1087      1087      1090      1091      1087      1090      1092
      1087      1090      1093      1088      1087      1089      1088      1087      1090
      1089      1087      1090      1090      1093      1094      1090      1093      1095
      1090      1093      1096      1091      1090      1092      1091      1090      1093
      1092      1090      1093      1093      1096      1097      1093      1096      1098
      1094      1093      1095      1094      1093      1096      1095      1093      1096
      1096      1098      1099      1096      1098      1100      1097      1096      1098
      1098      1100      1101      1098      1100      1102      1098      1100      1103
      1099      1098      1100      1100      1103      1104      1100      1103      1105
      1100      1103      1106      1101      1100      1102      1101      1100      1103
      1102      1100      1103      1103      1106      1107      1103      1106      1108
      1103      1106      1109      1104      1103      1105      1104      1103      1106
      1105      1103      1106      1106      1109      1110      1106      1109      1111
      1106      1109      1112      1107      1106      1108      1107      1106      1109
      1108      1106      1109      1109      1112      1113      1109      1112      1114
      1109      1112      1115      1110      1109      1111      1110      1109      1112
      1111      1109      1112      1112      1115      1116      1112      1115      1117
      1112      1115      1118      1113      1112      1114      1113      1112      1115
      1114      1112      1115      1115      1118      1119      1115      1118      1120
      1115      1118      1121      1116      1115      1117      1116      1115      1118
      1117      1115      1118      1118      1121      1122      1118      1121      1123
      1118      1121      1124      1119      1118      1120      1119      1118      1121
      1120      1118      1121      1122      1121      1123      1122      1121      1124
      1123      1121      1124      1125      1128      1129      1125      1128      1130
      1125      1128      1131      1126      1125      1127      1126      1125      1128
      1127      1125      1128      1128      1131      1132      1128      1131      1133
      1128      1131      1134      1129      1128      1130      1129      1128      1131
      1130      1128      1131      1131      1134      1135      1131      1134      1136
      1131      1134      1137      1132      1131      1133      1132      1131      1134
      1133      1131      1134      1134      1137      1138      1134      1137      1139
      1134      1137      1140      1135      1134      1136      1135      1134      1137
      1136      1134      1137      1137      1140      1141      1137      1140      1142
      1137      1140      1143      1138      1137      1139      1138      1137      1140
      1139      1137      1140      1140      1143      1144      1140      1143      1145
      1141      1140      1142      1141      1140      1143      1142      1140      1143
      1143      1145      1146      1143      1145      1147      1144      1143      1145
      1145      1147      1148      1145      1147      1149      1145      1147      1150
      1146      1145      1147      1147      1150      1151      1147      1150      1152
      1147      1150      1153      1148      1147      1149      1148      1147      1150
      1149      1147      1150      1150      1153      1154      1150      1153      1155
      1150      1153      1156      1151      1150      1152      1151      1150      1153
      1152      1150      1153      1153      1156      1157      1153      1156      1158
      1153      1156      1159      1154      1153      1155      1154      1153      1156
      1155      1153      1156      1156      1159      1160      1156      1159      1161
      1156      1159      1162      1157      1156      1158      1157      1156      1159
      1158      1156      1159      1159      1162      1163      1159      1162      1164
      1159      1162      1165      1160      1159      1161      1160      1159      1162
      1161      1159      1162      1162      1165      1166      1162      1165      1167
      1162      1165      1168      1163      1162      1164      1163      1162      1165
      1164      1162      1165      1165      1168      1169      1165      1168      1170
      1165      1168      1171      1166      1165      1167      1166      1165      1168
      1167      1165      1168      1169      1168      1170      1169      1168      1171
      1170      1168      1171      1172      1174      1175      1172      1176      1177
      1172      1176      1178      1172      1176      1179      1172      1218      1215
      1172      1218      1219      1172      1218      1220      1173      1172      1174
      1173      1172      1176      1173      1172      1218      1174      1172      1176
      1174      1172      1218      1176      1172      1218      1176      1179      1180
      1176      1179      1210      1177      1176      1178      1177      1176      1179
      1178      1176      1179      1179      1180      1181      1179      1180      1182
      1179      1210      1208      1179      1210      1211      1179      1210      1215
      1180      1179      1210      1180      1182      1183      1180      1182      1184
      1180      1182      1185      1181      1180      1182      1182      1185      1186
      1182      1185      1187      1182      1185      1208      1183      1182      1184
      1183      1182      1185      1184      1182      1185      1185      1187      1188
      1185      1187      1189      1185      1187      1197      1185      1208      1205
      1185      1208      1209      1185      1208      1210      1186      1185      1187
      1186      1185      1208      1187      1185      1208      1187      1189      1190
      1187      1189      1191      1187      1189      1192      1187      1197      1195
      1187      1197      1198      1187      1197      1202      1188      1187      1189
      1188      1187      1197      1189      1187      1197      1189      1192      1193
      1189      1192      1194      1189      1192      1195      1190      1189      1191
      1190      1189      1192      1191      1189      1192      1192      1195      1196
      1192      1195      1197      1192      1195      1221      1193      1192      1194
      1193      1192      1195      1194      1192      1195      1195      1197      1198
      1195      1197      1202      1195      1221      1222      1195      1221      1223
      1195      1221      1227      1196      1195      1197      1196      1195      1221
      1197      1195      1221      1197      1198      1199      1197      1198      1200
      1197      1198      1201      1197      1202      1203      1197      1202      1204
      1197      1202      1205      1198      1197      1202      1199      1198      1200
      1199      1198      1201      1200      1198      1201      1202      1205      1206
      1202      1205      1207      1202      1205      1208      1203      1202      1204
      1203      1202      1205      1204      1202      1205      1205      1208      1209
      1205      1208      1210      1206      1205      1207      1206      1205      1208
      1207      1205      1208      1208      1210      1211      1208      1210      1215
      1209      1208      1210      1210      1211      1212      1210      1211      1213
      1210      1211      1214      1210      1215      1216      1210      1215      1217
      1210      1215      1218      1211      1210      1215      1212      1211      1213
      1212      1211      1214      1213      1211      1214      1215      1218      1219
      1215      1218      1220      1216      1215      1217      1216      1215      1218
      1217      1215      1218      1219      1218      1220      1221      1223      1224
      1221      1223      1225      1221      1223      1226      1221      1227      1228
      1221      1227      1229      1221      1227      1230      1222      1221      1223
      1222      1221      1227      1223      1221      1227      1224      1223      1225
      1224      1223      1226      1225      1223      1226      1227      1230      1231
      1227      1230      1232      1227      1230      1233      1228      1227      1229
      1228      1227      1230      1229      1227      1230      1230      1233      1234
      1230      1233      1235      1230      1233      1236      1231      1230      1232
      1231      1230      1233      1232      1230      1233      1233      1236      1237
      1233      1236      1238      1233      1236      1242      1234      1233      1235
      1234      1233      1236      1235      1233      1236      1236      1238      1239
      1236      1238      1240      1236      1238      1241      1236      1242      1243
      1236      1242      1244      1236      1242      1245      1237      1236      1238
      1237      1236      1242      1238      1236      1242      1239      1238      1240
      1239      1238      1241      1240      1238      1241      1243      1242      1244
      1243      1242      1245      1244      1242      1245      1246      1247      1248
      1246      1247      1249      1246      1247      1250      1246      1251      1252
      1246      1251      1253      1246      1251      1254      1246      1255      1256
      1246      1255      1257      1246      1255      1258      1246      1259      1260
      1246      1259      1261      1246      1259      1262      1247      1246      1251
      1247      1246      1255      1247      1246      1259      1248      1247      1249
      1248      1247      1250      1249      1247      1250      1251      1246      1255
      1251      1246      1259      1252      1251      1253      1252      1251      1254
      1253      1251      1254      1255      1246      1259      1256      1255      1257
      1256      1255      1258      1257      1255      1258      1259      1262      1263
      1259      1262      1264      1259      1262      1269      1260      1259      1261
      1260      1259      1262      1261      1259      1262      1262      1269      1265
      1263      1262      1264      1263      1262      1269      1264      1262      1269
      1265      1268      1270      1266      1265      1267      1266      1265      1268
      1266      1265      1269      1267      1265      1268      1267      1265      1269
      1268      1265      1269      1268      1270      1271      1268      1270      1272
      1268      1270      1275      1270      1275      1273      1270      1275      1276
      1270      1275      1277      1271      1270      1272      1271      1270      1275
      1272      1270      1275      1273      1275      1276      1273      1275      1277
      1273      1325      1326      1273      1325      1327      1274      1273      1275
      1274      1273      1325      1275      1273      1325      1275      1277      1278
      1275      1277      1279      1275      1277      1281      1276      1275      1277
      1277      1279      1280      1277      1281      1282      1277      1281      1283
      1278      1277      1279      1278      1277      1281      1279      1277      1281
      1281      1283      1284      1281      1283      1285      1282      1281      1283
      1283      1285      1286      1283      1285      1287      1283      1285      1288
      1284      1283      1285      1285      1288      1289      1285      1288      1290
      1285      1288      1291      1286      1285      1287      1286      1285      1288
      1287      1285      1288      1288      1291      1292      1288      1291      1293
      1288      1291      1294      1289      1288      1290      1289      1288      1291
      1290      1288      1291      1291      1294      1295      1291      1294      1296
      1291      1294      1297      1292      1291      1293      1292      1291      1294
      1293      1291      1294      1294      1297      1298      1294      1297      1299
      1294      1297      1300      1295      1294      1296      1295      1294      1297
      1296      1294      1297      1297      1300      1301      1297      1300      1302
      1297      1300      1303      1298      1297      1299      1298      1297      1300
      1299      1297      1300      1300      1303      1304      1300      1303      1305
      1300      1303      1306      1301      1300      1302      1301      1300      1303
      1302      1300      1303      1303      1306      1307      1303      1306      1308
      1303      1306      1309      1304      1303      1305      1304      1303      1306
      1305      1303      1306      1306      1309      1310      1306      1309      1311
      1306      1309      1312      1307      1306      1308      1307      1306      1309
      1308      1306      1309      1309      1312      1313      1309      1312      1314
      1309      1312      1315      1310      1309      1311      1310      1309      1312
      1311      1309      1312      1312      1315      1316      1312      1315      1317
      1312      1315      1318      1313      1312      1314      1313      1312      1315
      1314      1312      1315      1315      1318      1319      1315      1318      1320
      1315      1318      1321      1316      1315      1317      1316      1315      1318
      1317      1315      1318      1318      1321      1322      1318      1321      1323
      1318      1321      1324      1319      1318      1320      1319      1318      1321
      1320      1318      1321      1322      1321      1323      1322      1321      1324
      1323      1321      1324      1325      1327      1328      1325      1327      1329
      1325      1327      1330      1326      1325      1327      1327      1330      1331
      1327      1330      1332      1327      1330      1333      1328      1327      1329
      1328      1327      1330      1329      1327      1330      1330      1333      1334
      1330      1333      1335      1330      1333      1336      1331      1330      1332
      1331      1330      1333      1332      1330      1333      1333      1336      1337
      1333      1336      1338      1333      1336      1339      1334      1333      1335
      1334      1333      1336      1335      1333      1336      1336      1339      1340
      1336      1339      1341      1336      1339      1342      1337      1336      1338
      1337      1336      1339      1338      1336      1339      1339      1342      1343
      1339      1342      1344      1339      1342      1345      1340      1339      1341
      1340      1339      1342      1341      1339      1342      1342      1345      1346
      1342      1345      1347      1342      1345      1348      1343      1342      1344
      1343      1342      1345      1344      1342      1345      1345      1348      1349
      1345      1348      1350      1345      1348      1351      1346      1345      1347
      1346      1345      1348      1347      1345      1348      1348      1351      1352
      1348      1351      1353      1348      1351      1354      1349      1348      1350
      1349      1348      1351      1350      1348      1351      1351      1354      1355
      1351      1354      1356      1351      1354      1357      1352      1351      1353
      1352      1351      1354      1353      1351      1354      1354      1357      1358
      1354      1357      1359      1354      1357      1360      1355      1354      1356
      1355      1354      1357      1356      1354      1357      1357      1360      1361
      1357      1360      1362      1357      1360      1363      1358      1357      1359
      1358      1357      1360      1359      1357      1360      1360      1363      1364
      1360      1363      1365      1360      1363      1366      1361      1360      1362
      1361      1360      1363      1362      1360      1363      1363      1366      1367
      1363      1366      1368      1363      1366      1369      1364      1363      1365
      1364      1363      1366      1365      1363      1366      1366      1369      1370
      1366      1369      1371      1366      1369      1372      1367      1366      1368
      1367      1366      1369      1368      1366      1369      1369      1372      1373
      1369      1372      1374      1369      1372      1375      1370      1369      1371
      1370      1369      1372      1371      1369      1372      1372      1375      1376
      1372      1375      1377      1372      1375      1378      1373      1372      1374
      1373      1372      1375      1374      1372      1375      1375      1378      1379
      1375      1378      1380      1375      1378      1381      1376      1375      1377
      1376      1375      1378      1377      1375      1378      1378      1381      1382
      1378      1381      1383      1378      1381      1384      1379      1378      1380
      1379      1378      1381      1380      1378      1381      1381      1384      1385
      1381      1384      1386      1381      1384      1387      1382      1381      1383
      1382      1381      1384      1383      1381      1384      1384      1387      1388
      1384      1387      1389      1384      1387      1390      1385      1384      1386
      1385      1384      1387      1386      1384      1387      1387      1390      1391
      1387      1390      1392      1387      1390      1393      1388      1387      1389
      1388      1387      1390      1389      1387      1390      1391      1390      1392
      1391      1390      1393      1392      1390      1393      1394      1395      1396
      1394      1395      1397      1394      1395      1410      1394      1398      1399
      1394      1398      1400      1394      1398      1401      1394      1402      1403
      1394      1402      1404      1394      1402      1405      1394      1406      1407
      1394      1406      1408      1394      1406      1409      1395      1394      1398
      1395      1394      1402      1395      1394      1406      1395      1410      1411
      1395      1410      1412      1395      1410      1416      1396      1395      1397
      1396      1395      1410      1397      1395      1410      1398      1394      1402
      1398      1394      1406      1399      1398      1400      1399      1398      1401
      1400      1398      1401      1402      1394      1406      1403      1402      1404
      1403      1402      1405      1404      1402      1405      1407      1406      1408
      1407      1406      1409      1408      1406      1409      1410      1416      1413
      1411      1410      1412      1411      1410      1416      1412      1410      1416
      1413      1417      1418      1414      1413      1415      1414      1413      1416
      1414      1413      1417      1415      1413      1416      1415      1413      1417
      1416      1413      1417      1417      1418      1419      1417      1418      1420
      1417      1418      1421      1418      1421      1422      1418      1421      1423
      1418      1421      1429      1419      1418      1420      1419      1418      1421
      1420      1418      1421      1421      1423      1424      1421      1429      1430
      1421      1429      1431      1421      1429      1432      1422      1421      1423
      1422      1421      1429      1423      1421      1429      1423      1424      1425
      1423      1424      1426      1424      1426      1427      1424      1426      1428
      1424      1426      1438      1425      1424      1426      1426      1438      1439
      1426      1438      1440      1426      1438      1441      1427      1426      1428
      1427      1426      1438      1428      1426      1438      1429      1432      1433
      1430      1429      1431      1430      1429      1432      1431      1429      1432
      1432      1433      1434      1432      1433      1435      1433      1435      1436
      1433      1435      1437      1433      1435      1485      1434      1433      1435
      1435      1485      1486      1435      1485      1487      1435      1485      1488
      1436      1435      1437      1436      1435      1485      1437      1435      1485
      1438      1441      1442      1438      1441      1443      1438      1441      1444
      1439      1438      1440      1439      1438      1441      1440      1438      1441
      1441      1444      1445      1441      1444      1446      1441      1444      1447
      1442      1441      1443      1442      1441      1444      1443      1441      1444
      1444      1447      1448      1444      1447      1449      1444      1447      1450
      1445      1444      1446      1445      1444      1447      1446      1444      1447
      1447      1450      1451      1447      1450      1452      1447      1450      1453
      1448      1447      1449      1448      1447      1450      1449      1447      1450
      1450      1453      1454      1450      1453      1455      1450      1453      1456
      1451      1450      1452      1451      1450      1453      1452      1450      1453
      1453      1456      1457      1453      1456      1458      1454      1453      1455
      1454      1453      1456      1455      1453      1456      1456      1458      1459
      1456      1458      1460      1457      1456      1458      1458      1460      1461
      1458      1460      1462      1458      1460      1463      1459      1458      1460
      1460      1463      1464      1460      1463      1465      1460      1463      1466
      1461      1460      1462      1461      1460      1463      1462      1460      1463
      1463      1466      1467      1463      1466      1468      1463      1466      1469
      1464      1463      1465      1464      1463      1466      1465      1463      1466
      1466      1469      1470      1466      1469      1471      1466      1469      1472
      1467      1466      1468      1467      1466      1469      1468      1466      1469
      1469      1472      1473      1469      1472      1474      1469      1472      1475
      1470      1469      1471      1470      1469      1472      1471      1469      1472
      1472      1475      1476      1472      1475      1477      1472      1475      1478
      1473      1472      1474      1473      1472      1475      1474      1472      1475
      1475      1478      1479      1475      1478      1480      1475      1478      1481
      1476      1475      1477      1476      1475      1478      1477      1475      1478
      1478      1481      1482      1478      1481      1483      1478      1481      1484
      1479      1478      1480      1479      1478      1481      1480      1478      1481
      1482      1481      1483      1482      1481      1484      1483      1481      1484
      1485      1488      1489      1485      1488      1490      1485      1488      1491
      1486      1485      1487      1486      1485      1488      1487      1485      1488
      1488      1491      1492      1488      1491      1493      1488      1491      1494
      1489      1488      1490      1489      1488      1491      1490      1488      1491
      1491      1494      1495      1491      1494      1496      1491      1494      1497
      1492      1491      1493      1492      1491      1494      1493      1491      1494
      1494      1497      1498      1494      1497      1499      1494      1497      1500
      1495      1494      1496      1495      1494      1497      1496      1494      1497
      1497      1500      1501      1497      1500      1502      1497      1500      1503
      1498      1497      1499      1498      1497      1500      1499      1497      1500
      1500      1503      1504      1500      1503      1505      1501      1500      1502
      1501      1500      1503      1502      1500      1503      1503      1505      1506
      1503      1505      1507      1504      1503      1505      1505      1507      1508
      1505      1507      1509      1505      1507      1510      1506      1505      1507
      1507      1510      1511      1507      1510      1512      1507      1510      1513
      1508      1507      1509      1508      1507      1510      1509      1507      1510
      1510      1513      1514      1510      1513      1515      1510      1513      1516
      1511      1510      1512      1511      1510      1513      1512      1510      1513
      1513      1516      1517      1513      1516      1518      1513      1516      1519
      1514      1513      1515      1514      1513      1516      1515      1513      1516
      1516      1519      1520      1516      1519      1521      1516      1519      1522
      1517      1516      1518      1517      1516      1519      1518      1516      1519
      1519      1522      1523      1519      1522      1524      1519      1522      1525
      1520      1519      1521      1520      1519      1522      1521      1519      1522
      1522      1525      1526      1522      1525      1527      1522      1525      1528
      1523      1522      1524      1523      1522      1525      1524      1522      1525
      1525      1528      1529      1525      1528      1530      1525      1528      1531
      1526      1525      1527      1526      1525      1528      1527      1525      1528
      1529      1528      1530      1529      1528      1531      1530      1528      1531
      1532      1533      1534      1532      1533      1535      1532      1533      1536
      1532      1537      1538      1532      1537      1539      1532      1537      1540
      1532      1541      1542      1532      1541      1543      1532      1541      1544
      1532      1545      1546      1532      1545      1547      1532      1545      1548
      1533      1532      1537      1533      1532      1541      1533      1532      1545
      1534      1533      1535      1534      1533      1536      1535      1533      1536
      1537      1532      1541      1537      1532      1545      1538      1537      1539
      1538      1537      1540      1539      1537      1540      1541      1532      1545
      1542      1541      1543      1542      1541      1544      1543      1541      1544
      1545      1548      1549      1545      1548      1550      1545      1548      1555
      1546      1545      1547      1546      1545      1548      1547      1545      1548
      1548      1555      1551      1549      1548      1550      1549      1548      1555
      1550      1548      1555      1551      1554      1556      1552      1551      1553
      1552      1551      1554      1552      1551      1555      1553      1551      1554
      1553      1551      1555      1554      1551      1555      1554      1556      1557
      1554      1556      1558      1554      1556      1561      1556      1561      1559
      1556      1561      1562      1556      1561      1563      1557      1556      1558
      1557      1556      1561      1558      1556      1561      1559      1561      1562
      1559      1561      1563      1559      1611      1612      1559      1611      1613
      1560      1559      1561      1560      1559      1611      1561      1559      1611
      1561      1563      1564      1561      1563      1565      1561      1563      1567
      1562      1561      1563      1563      1565      1566      1563      1567      1568
      1563      1567      1569      1564      1563      1565      1564      1563      1567
      1565      1563      1567      1567      1569      1570      1567      1569      1571
      1568      1567      1569      1569      1571      1572      1569      1571      1573
      1569      1571      1574      1570      1569      1571      1571      1574      1575
      1571      1574      1576      1571      1574      1577      1572      1571      1573
      1572      1571      1574      1573      1571      1574      1574      1577      1578
      1574      1577      1579      1574      1577      1580      1575      1574      1576
      1575      1574      1577      1576      1574      1577      1577      1580      1581
      1577      1580      1582      1577      1580      1583      1578      1577      1579
      1578      1577      1580      1579      1577      1580      1580      1583      1584
      1580      1583      1585      1580      1583      1586      1581      1580      1582
      1581      1580      1583      1582      1580      1583      1583      1586      1587
      1583      1586      1588      1583      1586      1589      1584      1583      1585
      1584      1583      1586      1585      1583      1586      1586      1589      1590
      1586      1589      1591      1586      1589      1592      1587      1586      1588
      1587      1586      1589      1588      1586      1589      1589      1592      1593
      1589      1592      1594      1589      1592      1595      1590      1589      1591
      1590      1589      1592      1591      1589      1592      1592      1595      1596
      1592      1595      1597      1592      1595      1598      1593      1592      1594
      1593      1592      1595      1594      1592      1595      1595      1598      1599
      1595      1598      1600      1595      1598      1601      1596      1595      1597
      1596      1595      1598      1597      1595      1598      1598      1601      1602
      1598      1601      1603      1598      1601      1604      1599      1598      1600
      1599      1598      1601      1600      1598      1601      1601      1604      1605
      1601      1604      1606      1601      1604      1607      1602      1601      1603
      1602      1601      1604      1603      1601      1604      1604      1607      1608
      1604      1607      1609      1604      1607      1610      1605      1604      1606
      1605      1604      1607      1606      1604      1607      1608      1607      1609
      1608      1607      1610      1609      1607      1610      1611      1613      1614
      1611      1613      1615      1611      1613      1616      1612      1611      1613
      1613      1616      1617      1613      1616      1618      1613      1616      1619
      1614      1613      1615      1614      1613      1616      1615      1613      1616
      1616      1619      1620      1616      1619      1621      1616      1619      1622
      1617      1616      1618      1617      1616      1619      1618      1616      1619
      1619      1622      1623      1619      1622      1624      1619      1622      1625
      1620      1619      1621      1620      1619      1622      1621      1619      1622
      1622      1625      1626      1622      1625      1627      1622      1625      1628
      1623      1622      1624      1623      1622      1625      1624      1622      1625
      1625      1628      1629      1625      1628      1630      1625      1628      1631
      1626      1625      1627      1626      1625      1628      1627      1625      1628
      1628      1631      1632      1628      1631      1633      1628      1631      1634
      1629      1628      1630      1629      1628      1631      1630      1628      1631
      1631      1634      1635      1631      1634      1636      1631      1634      1637
      1632      1631      1633      1632      1631      1634      1633      1631      1634
      1634      1637      1638      1634      1637      1639      1634      1637      1640
      1635      1634      1636      1635      1634      1637      1636      1634      1637
      1637      1640      1641      1637      1640      1642      1637      1640      1643
      1638      1637      1639      1638      1637      1640      1639      1637      1640
      1640      1643      1644      1640      1643      1645      1640      1643      1646
      1641      1640      1642      1641      1640      1643      1642      1640      1643
      1643      1646      1647      1643      1646      1648      1643      1646      1649
      1644      1643      1645      1644      1643      1646      1645      1643      1646
      1646      1649      1650      1646      1649      1651      1646      1649      1652
      1647      1646      1648      1647      1646      1649      1648      1646      1649
      1649      1652      1653      1649      1652      1654      1649      1652      1655
      1650      1649      1651      1650      1649      1652      1651      1649      1652
      1652      1655      1656      1652      1655      1657      1652      1655      1658
      1653      1652      1654      1653      1652      1655      1654      1652      1655
      1655      1658      1659      1655      1658      1660      1655      1658      1661
      1656      1655      1657      1656      1655      1658      1657      1655      1658
      1658      1661      1662      1658      1661      1663      1658      1661      1664
      1659      1658      1660      1659      1658      1661      1660      1658      1661
      1661      1664      1665      1661      1664      1666      1661      1664      1667
      1662      1661      1663      1662      1661      1664      1663      1661      1664
      1664      1667      1668      1664      1667      1669      1664      1667      1670
      1665      1664      1666      1665      1664      1667      1666      1664      1667
      1667      1670      1671      1667      1670      1672      1667      1670      1673
      1668      1667      1669      1668      1667      1670      1669      1667      1670
      1670      1673      1674      1670      1673      1675      1670      1673      1676
      1671      1670      1672      1671      1670      1673      1672      1670      1673
      1673      1676      1677      1673      1676      1678      1673      1676      1679
      1674      1673      1675      1674      1673      1676      1675      1673      1676
      1677      1676      1678      1677      1676      1679      1678      1676      1679
      1680      1682      1683      1680      1684      1685      1680      1684      1686
      1680      1684      1687      1680      1726      1723      1680      1726      1727
      1680      1726      1728      1681      1680      1682      1681      1680      1684
      1681      1680      1726      1682      1680      1684      1682      1680      1726
      1684      1680      1726      1684      1687      1688      1684      1687      1718
      1685      1684      1686      1685      1684      1687      1686      1684      1687
      1687      1688      1689      1687      1688      1690      1687      1718      1716
      1687      1718      1719      1687      1718      1723      1688      1687      1718
      1688      1690      1691      1688      1690      1692      1688      1690      1693
      1689      1688      1690      1690      1693      1694      1690      1693      1695
      1690      1693      1716      1691      1690      1692      1691      1690      1693
      1692      1690      1693      1693      1695      1696      1693      1695      1697
      1693      1695      1705      1693      1716      1713      1693      1716      1717
      1693      1716      1718      1694      1693      1695      1694      1693      1716
      1695      1693      1716      1695      1697      1698      1695      1697      1699
      1695      1697      1700      1695      1705      1703      1695      1705      1706
      1695      1705      1710      1696      1695      1697      1696      1695      1705
      1697      1695      1705      1697      1700      1701      1697      1700      1702
      1697      1700      1703      1698      1697      1699      1698      1697      1700
      1699      1697      1700      1700      1703      1704      1700      1703      1705
      1700      1703      1729      1701      1700      1702      1701      1700      1703
      1702      1700      1703      1703      1705      1706      1703      1705      1710
      1703      1729      1730      1703      1729      1731      1703      1729      1735
      1704      1703      1705      1704      1703      1729      1705      1703      1729
      1705      1706      1707      1705      1706      1708      1705      1706      1709
      1705      1710      1711      1705      1710      1712      1705      1710      1713
      1706      1705      1710      1707      1706      1708      1707      1706      1709
      1708      1706      1709      1710      1713      1714      1710      1713      1715
      1710      1713      1716      1711      1710      1712      1711      1710      1713
      1712      1710      1713      1713      1716      1717      1713      1716      1718
      1714      1713      1715      1714      1713      1716      1715      1713      1716
      1716      1718      1719      1716      1718      1723      1717      1716      1718
      1718      1719      1720      1718      1719      1721      1718      1719      1722
      1718      1723      1724      1718      1723      1725      1718      1723      1726
      1719      1718      1723      1720      1719      1721      1720      1719      1722
      1721      1719      1722      1723      1726      1727      1723      1726      1728
      1724      1723      1725      1724      1723      1726      1725      1723      1726
      1727      1726      1728      1729      1731      1732      1729      1731      1733
      1729      1731      1734      1729      1735      1736      1729      1735      1737
      1729      1735      1738      1730      1729      1731      1730      1729      1735
      1731      1729      1735      1732      1731      1733      1732      1731      1734
      1733      1731      1734      1735      1738      1739      1735      1738      1740
      1735      1738      1741      1736      1735      1737      1736      1735      1738
      1737      1735      1738      1738      1741      1742      1738      1741      1743
      1738      1741      1744      1739      1738      1740      1739      1738      1741
      1740      1738      1741      1741      1744      1745      1741      1744      1746
      1741      1744      1750      1742      1741      1743      1742      1741      1744
      1743      1741      1744      1744      1746      1747      1744      1746      1748
      1744      1746      1749      1744      1750      1751      1744      1750      1752
      1744      1750      1753      1745      1744      1746      1745      1744      1750
      1746      1744      1750      1747      1746      1748      1747      1746      1749
      1748      1746      1749      1751      1750      1752      1751      1750      1753
      1752      1750      1753      1754      1758      1759      1754      1758      1760
      1754      1758      1761      1755      1754      1756      1755      1754      1757
      1755      1754      1758      1756      1754      1757      1756      1754      1758
      1757      1754      1758      1758      1761      1762      1758      1761      1763
      1758      1761      1768      1759      1758      1760      1759      1758      1761
      1760      1758      1761      1761      1768      1764      1762      1761      1763
      1762      1761      1768      1763      1761      1768      1764      1767      1769
      1765      1764      1766      1765      1764      1767      1765      1764      1768
      1766      1764      1767      1766      1764      1768      1767      1764      1768
      1767      1769      1770      1767      1769      1771      1767      1769      1772
      1769      1772      1773      1769      1772      1774      1769      1772      1780
      1770      1769      1771      1770      1769      1772      1771      1769      1772
      1772      1774      1775      1772      1780      1781      1772      1780      1782
      1772      1780      1783      1773      1772      1774      1773      1772      1780
      1774      1772      1780      1774      1775      1776      1774      1775      1777
      1775      1777      1778      1775      1777      1779      1775      1777      1789
      1776      1775      1777      1777      1789      1790      1777      1789      1791
      1777      1789      1792      1778      1777      1779      1778      1777      1789
      1779      1777      1789      1780      1783      1784      1781      1780      1782
      1781      1780      1783      1782      1780      1783      1783      1784      1785
      1783      1784      1786      1784      1786      1787      1784      1786      1788
      1784      1786      1836      1785      1784      1786      1786      1836      1837
      1786      1836      1838      1786      1836      1839      1787      1786      1788
      1787      1786      1836      1788      1786      1836      1789      1792      1793
      1789      1792      1794      1789      1792      1795      1790      1789      1791
      1790      1789      1792      1791      1789      1792      1792      1795      1796
      1792      1795      1797      1792      1795      1798      1793      1792      1794
      1793      1792      1795      1794      1792      1795      1795      1798      1799
      1795      1798      1800      1795      1798      1801      1796      1795      1797
      1796      1795      1798      1797      1795      1798      1798      1801      1802
      1798      1801      1803      1798      1801      1804      1799      1798      1800
      1799      1798      1801      1800      1798      1801      1801      1804      1805
      1801      1804      1806      1801      1804      1807      1802      1801      1803
      1802      1801      1804      1803      1801      1804      1804      1807      1808
      1804      1807      1809      1805      1804      1806      1805      1804      1807
      1806      1804      1807      1807      1809      1810      1807      1809      1811
      1808      1807      1809      1809      1811      1812      1809      1811      1813
      1809      1811      1814      1810      1809      1811      1811      1814      1815
      1811      1814      1816      1811      1814      1817      1812      1811      1813
      1812      1811      1814      1813      1811      1814      1814      1817      1818
      1814      1817      1819      1814      1817      1820      1815      1814      1816
      1815      1814      1817      1816      1814      1817      1817      1820      1821
      1817      1820      1822      1817      1820      1823      1818      1817      1819
      1818      1817      1820      1819      1817      1820      1820      1823      1824
      1820      1823      1825      1820      1823      1826      1821      1820      1822
      1821      1820      1823      1822      1820      1823      1823      1826      1827
      1823      1826      1828      1823      1826      1829      1824      1823      1825
      1824      1823      1826      1825      1823      1826      1826      1829      1830
      1826      1829      1831      1826      1829      1832      1827      1826      1828
      1827      1826      1829      1828      1826      1829      1829      1832      1833
      1829      1832      1834      1829      1832      1835      1830      1829      1831
      1830      1829      1832      1831      1829      1832      1833      1832      1834
      1833      1832      1835      1834      1832      1835      1836      1839      1840
      1836      1839      1841      1836      1839      1842      1837      1836      1838
      1837      1836      1839      1838      1836      1839      1839      1842      1843
      1839      1842      1844      1839      1842      1845      1840      1839      1841
      1840      1839      1842      1841      1839      1842      1842      1845      1846
      1842      1845      1847      1842      1845      1848      1843      1842      1844
      1843      1842      1845      1844      1842      1845      1845      1848      1849
      1845      1848      1850      1845      1848      1851      1846      1845      1847
      1846      1845      1848      1847      1845      1848      1848      1851      1852
      1848      1851      1853      1848      1851      1854      1849      1848      1850
      1849      1848      1851      1850      1848      1851      1851      1854      1855
      1851      1854      1856      1852      1851      1853      1852      1851      1854
      1853      1851      1854      1854      1856      1857      1854      1856      1858
      1855      1854      1856      1856      1858      1859      1856      1858      1860
      1856      1858      1861      1857      1856      1858      1858      1861      1862
      1858      1861      1863      1858      1861      1864      1859      1858      1860
      1859      1858      1861      1860      1858      1861      1861      1864      1865
      1861      1864      1866      1861      1864      1867      1862      1861      1863
      1862      1861      1864      1863      1861      1864      1864      1867      1868
      1864      1867      1869      1864      1867      1870      1865      1864      1866
      1865      1864      1867      1866      1864      1867      1867      1870      1871
      1867      1870      1872      1867      1870      1873      1868      1867      1869
      1868      1867      1870      1869      1867      1870      1870      1873      1874
      1870      1873      1875      1870      1873      1876      1871      1870      1872
      1871      1870      1873      1872      1870      1873      1873      1876      1877
      1873      1876      1878      1873      1876      1879      1874      1873      1875
      1874      1873      1876      1875      1873      1876      1876      1879      1880
      1876      1879      1881      1876      1879      1882      1877      1876      1878
      1877      1876      1879      1878      1876      1879      1880      1879      1881
      1880      1879      1882      1881      1879      1882      1883      1884      1885
      1883      1884      1886      1883      1884      1899      1883      1887      1888
      1883      1887      1889      1883      1887      1890      1883      1891      1892
      1883      1891      1893      1883      1891      1894      1883      1895      1896
      1883      1895      1897      1883      1895      1898      1884      1883      1887
      1884      1883      1891      1884      1883      1895      1884      1899      1900
      1884      1899      1901      1884      1899      1905      1885      1884      1886
      1885      1884      1899      1886      1884      1899      1887      1883      1891
      1887      1883      1895      1888      1887      1889      1888      1887      1890
      1889      1887      1890      1891      1883      1895      1892      1891      1893
      1892      1891      1894      1893      1891      1894      1896      1895      1897
      1896      1895      1898      1897      1895      1898      1899      1905      1902
      1900      1899      1901      1900      1899      1905      1901      1899      1905
      1902      1906      1907      1903      1902      1904      1903      1902      1905
      1903      1902      1906      1904      1902      1905      1904      1902      1906
      1905      1902      1906      1906      1907      1908      1906      1907      1909
      1906      1907      1910      1907      1910      1911      1907      1910      1912
      1907      1910      1918      1908      1907      1909      1908      1907      1910
      1909      1907      1910      1910      1912      1913      1910      1918      1919
      1910      1918      1920      1910      1918      1921      1911      1910      1912
      1911      1910      1918      1912      1910      1918      1912      1913      1914
      1912      1913      1915      1913      1915      1916      1913      1915      1917
      1913      1915      1927      1914      1913      1915      1915      1927      1928
      1915      1927      1929      1915      1927      1930      1916      1915      1917
      1916      1915      1927      1917      1915      1927      1918      1921      1922
      1919      1918      1920      1919      1918      1921      1920      1918      1921
      1921      1922      1923      1921      1922      1924      1922      1924      1925
      1922      1924      1926      1922      1924      1974      1923      1922      1924
      1924      1974      1975      1924      1974      1976      1924      1974      1977
      1925      1924      1926      1925      1924      1974      1926      1924      1974
      1927      1930      1931      1927      1930      1932      1927      1930      1933
      1928      1927      1929      1928      1927      1930      1929      1927      1930
      1930      1933      1934      1930      1933      1935      1930      1933      1936
      1931      1930      1932      1931      1930      1933      1932      1930      1933
      1933      1936      1937      1933      1936      1938      1933      1936      1939
      1934      1933      1935      1934      1933      1936      1935      1933      1936
      1936      1939      1940      1936      1939      1941      1936      1939      1942
      1937      1936      1938      1937      1936      1939      1938      1936      1939
      1939      1942      1943      1939      1942      1944      1939      1942      1945
      1940      1939      1941      1940      1939      1942      1941      1939      1942
      1942      1945      1946      1942      1945      1947      1943      1942      1944
      1943      1942      1945      1944      1942      1945      1945      1947      1948
      1945      1947      1949      1946      1945      1947      1947      1949      1950
      1947      1949      1951      1947      1949      1952      1948      1947      1949
      1949      1952      1953      1949      1952      1954      1949      1952      1955
      1950      1949      1951      1950      1949      1952      1951      1949      1952
      1952      1955      1956      1952      1955      1957      1952      1955      1958
      1953      1952      1954      1953      1952      1955      1954      1952      1955
      1955      1958      1959      1955      1958      1960      1955      1958      1961
      1956      1955      1957      1956      1955      1958      1957      1955      1958
      1958      1961      1962      1958      1961      1963      1958      1961      1964
      1959      1958      1960      1959      1958      1961      1960      1958      1961
      1961      1964      1965      1961      1964      1966      1961      1964      1967
      1962      1961      1963      1962      1961      1964      1963      1961      1964
      1964      1967      1968      1964      1967      1969      1964      1967      1970
      1965      1964      1966      1965      1964      1967      1966      1964      1967
      1967      1970      1971      1967      1970      1972      1967      1970      1973
      1968      1967      1969      1968      1967      1970      1969      1967      1970
      1971      1970      1972      1971      1970      1973      1972      1970      1973
      1974      1977      1978      1974      1977      1979      1974      1977      1980
      1975      1974      1976      1975      1974      1977      1976      1974      1977
      1977      1980      1981      1977      1980      1982      1977      1980      1983
      1978      1977      1979      1978      1977      1980      1979      1977      1980
      1980      1983      1984      1980      1983      1985      1980      1983      1986
      1981      1980      1982      1981      1980      1983      1982      1980      1983
      1983      1986      1987      1983      1986      1988      1983      1986      1989
      1984      1983      1985      1984      1983      1986      1985      1983      1986
      1986      1989      1990      1986      1989      1991      1986      1989      1992
      1987      1986      1988      1987      1986      1989      1988      1986      1989
      1989      1992      1993      1989      1992      1994      1990      1989      1991
      1990      1989      1992      1991      1989      1992      1992      1994      1995
      1992      1994      1996      1993      1992      1994      1994      1996      1997
      1994      1996      1998      1994      1996      1999      1995      1994      1996
      1996      1999      2000      1996      1999      2001      1996      1999      2002
      1997      1996      1998      1997      1996      1999      1998      1996      1999
      1999      2002      2003      1999      2002      2004      1999      2002      2005
      2000      1999      2001      2000      1999      2002      2001      1999      2002
      2002      2005      2006      2002      2005      2007      2002      2005      2008
      2003      2002      2004      2003      2002      2005      2004      2002      2005
      2005      2008      2009      2005      2008      2010      2005      2008      2011
      2006      2005      2007      2006      2005      2008      2007      2005      2008
      2008      2011      2012      2008      2011      2013      2008      2011      2014
      2009      2008      2010      2009      2008      2011      2010      2008      2011
      2011      2014      2015      2011      2014      2016      2011      2014      2017
      2012      2011      2013      2012      2011      2014      2013      2011      2014
      2014      2017      2018      2014      2017      2019      2014      2017      2020
      2015      2014      2016      2015      2014      2017      2016      2014      2017
      2018      2017      2019      2018      2017      2020      2019      2017      2020
      2021      2022      2023      2021      2022      2024      2021      2022      2025
      2021      2026      2027      2021      2026      2028      2021      2026      2029
      2021      2030      2031      2021      2030      2032      2021      2030      2033
      2021      2034      2035      2021      2034      2036      2021      2034      2037
      2022      2021      2026      2022      2021      2030      2022      2021      2034
      2023      2022      2024      2023      2022      2025      2024      2022      2025
      2026      2021      2030      2026      2021      2034      2027      2026      2028
      2027      2026      2029      2028      2026      2029      2030      2021      2034
      2031      2030      2032      2031      2030      2033      2032      2030      2033
      2034      2037      2038      2034      2037      2039      2034      2037      2044
      2035      2034      2036      2035      2034      2037      2036      2034      2037
      2037      2044      2040      2038      2037      2039      2038      2037      2044
      2039      2037      2044      2040      2043      2045      2041      2040      2042
      2041      2040      2043      2041      2040      2044      2042      2040      2043
      2042      2040      2044      2043      2040      2044      2043      2045      2046
      2043      2045      2047      2043      2045      2050      2045      2050      2048
      2045      2050      2051      2045      2050      2052      2046      2045      2047
      2046      2045      2050      2047      2045      2050      2048      2050      2051
      2048      2050      2052      2048      2100      2101      2048      2100      2102
      2049      2048      2050      2049      2048      2100      2050      2048      2100
      2050      2052      2053      2050      2052      2054      2050      2052      2056
      2051      2050      2052      2052      2054      2055      2052      2056      2057
      2052      2056      2058      2053      2052      2054      2053      2052      2056
      2054      2052      2056      2056      2058      2059      2056      2058      2060
      2057      2056      2058      2058      2060      2061      2058      2060      2062
      2058      2060      2063      2059      2058      2060      2060      2063      2064
      2060      2063      2065      2060      2063      2066      2061      2060      2062
      2061      2060      2063      2062      2060      2063      2063      2066      2067
      2063      2066      2068      2063      2066      2069      2064      2063      2065
      2064      2063      2066      2065      2063      2066      2066      2069      2070
      2066      2069      2071      2066      2069      2072      2067      2066      2068
      2067      2066      2069      2068      2066      2069      2069      2072      2073
      2069      2072      2074      2069      2072      2075      2070      2069      2071
      2070      2069      2072      2071      2069      2072      2072      2075      2076
      2072      2075      2077      2072      2075      2078      2073      2072      2074
      2073      2072      2075      2074      2072      2075      2075      2078      2079
      2075      2078      2080      2075      2078      2081      2076      2075      2077
      2076      2075      2078      2077      2075      2078      2078      2081      2082
      2078      2081      2083      2078      2081      2084      2079      2078      2080
      2079      2078      2081      2080      2078      2081      2081      2084      2085
      2081      2084      2086      2081      2084      2087      2082      2081      2083
      2082      2081      2084      2083      2081      2084      2084      2087      2088
      2084      2087      2089      2084      2087      2090      2085      2084      2086
      2085      2084      2087      2086      2084      2087      2087      2090      2091
      2087      2090      2092      2087      2090      2093      2088      2087      2089
      2088      2087      2090      2089      2087      2090      2090      2093      2094
      2090      2093      2095      2090      2093      2096      2091      2090      2092
      2091      2090      2093      2092      2090      2093      2093      2096      2097
      2093      2096      2098      2093      2096      2099      2094      2093      2095
      2094      2093      2096      2095      2093      2096      2097      2096      2098
      2097      2096      2099      2098      2096      2099      2100      2102      2103
      2100      2102      2104      2100      2102      2105      2101      2100      2102
      2102      2105      2106      2102      2105      2107      2102      2105      2108
      2103      2102      2104      2103      2102      2105      2104      2102      2105
      2105      2108      2109      2105      2108      2110      2105      2108      2111
      2106      2105      2107      2106      2105      2108      2107      2105      2108
      2108      2111      2112      2108      2111      2113      2108      2111      2114
      2109      2108      2110      2109      2108      2111      2110      2108      2111
      2111      2114      2115      2111      2114      2116      2111      2114      2117
      2112      2111      2113      2112      2111      2114      2113      2111      2114
      2114      2117      2118      2114      2117      2119      2114      2117      2120
      2115      2114      2116      2115      2114      2117      2116      2114      2117
      2117      2120      2121      2117      2120      2122      2117      2120      2123
      2118      2117      2119      2118      2117      2120      2119      2117      2120
      2120      2123      2124      2120      2123      2125      2120      2123      2126
      2121      2120      2122      2121      2120      2123      2122      2120      2123
      2123      2126      2127      2123      2126      2128      2123      2126      2129
      2124      2123      2125      2124      2123      2126      2125      2123      2126
      2126      2129      2130      2126      2129      2131      2126      2129      2132
      2127      2126      2128      2127      2126      2129      2128      2126      2129
      2129      2132      2133      2129      2132      2134      2129      2132      2135
      2130      2129      2131      2130      2129      2132      2131      2129      2132
      2132      2135      2136      2132      2135      2137      2132      2135      2138
      2133      2132      2134      2133      2132      2135      2134      2132      2135
      2135      2138      2139      2135      2138      2140      2135      2138      2141
      2136      2135      2137      2136      2135      2138      2137      2135      2138
      2138      2141      2142      2138      2141      2143      2138      2141      2144
      2139      2138      2140      2139      2138      2141      2140      2138      2141
      2141      2144      2145      2141      2144      2146      2141      2144      2147
      2142      2141      2143      2142      2141      2144      2143      2141      2144
      2144      2147      2148      2144      2147      2149      2144      2147      2150
      2145      2144      2146      2145      2144      2147      2146      2144      2147
      2147      2150      2151      2147      2150      2152      2147      2150      2153
      2148      2147      2149      2148      2147      2150      2149      2147      2150
      2150      2153      2154      2150      2153      2155      2150      2153      2156
      2151      2150      2152      2151      2150      2153      2152      2150      2153
      2153      2156      2157      2153      2156      2158      2153      2156      2159
      2154      2153      2155      2154      2153      2156      2155      2153      2156
      2156      2159      2160      2156      2159      2161      2156      2159      2162
      2157      2156      2158      2157      2156      2159      2158      2156      2159
      2159      2162      2163      2159      2162      2164      2159      2162      2165
      2160      2159      2161      2160      2159      2162      2161      2159      2162
      2162      2165      2166      2162      2165      2167      2162      2165      2168
      2163      2162      2164      2163      2162      2165      2164      2162      2165
      2166      2165      2167      2166      2165      2168      2167      2165      2168
      2169      2170      2171      2169      2170      2172      2169      2170      2185
      2169      2173      2174      2169      2173      2175      2169      2173      2176
      2169      2177      2178      2169      2177      2179      2169      2177      2180
      2169      2181      2182      2169      2181      2183      2169      2181      2184
      2170      2169      2173      2170      2169      2177      2170      2169      2181
      2170      2185      2186      2170      2185      2187      2170      2185      2191
      2171      2170      2172      2171      2170      2185      2172      2170      2185
      2173      2169      2177      2173      2169      2181      2174      2173      2175
      2174      2173      2176      2175      2173      2176      2177      2169      2181
      2178      2177      2179      2178      2177      2180      2179      2177      2180
      2182      2181      2183      2182      2181      2184      2183      2181      2184
      2185      2191      2188      2186      2185      2187      2186      2185      2191
      2187      2185      2191      2188      2192      2193      2189      2188      2190
      2189      2188      2191      2189      2188      2192      2190      2188      2191
      2190      2188      2192      2191      2188      2192      2192      2193      2194
      2192      2193      2195      2192      2193      2196      2193      2196      2197
      2193      2196      2198      2193      2196      2204      2194      2193      2195
      2194      2193      2196      2195      2193      2196      2196      2198      2199
      2196      2204      2205      2196      2204      2206      2196      2204      2207
      2197      2196      2198      2197      2196      2204      2198      2196      2204
      2198      2199      2200      2198      2199      2201      2199      2201      2202
      2199      2201      2203      2199      2201      2213      2200      2199      2201
      2201      2213      2214      2201      2213      2215      2201      2213      2216
      2202      2201      2203      2202      2201      2213      2203      2201      2213
      2204      2207      2208      2205      2204      2206      2205      2204      2207
      2206      2204      2207      2207      2208      2209      2207      2208      2210
      2208      2210      2211      2208      2210      2212      2208      2210      2260
      2209      2208      2210      2210      2260      2261      2210      2260      2262
      2210      2260      2263      2211      2210      2212      2211      2210      2260
      2212      2210      2260      2213      2216      2217      2213      2216      2218
      2213      2216      2219      2214      2213      2215      2214      2213      2216
      2215      2213      2216      2216      2219      2220      2216      2219      2221
      2216      2219      2222      2217      2216      2218      2217      2216      2219
      2218      2216      2219      2219      2222      2223      2219      2222      2224
      2219      2222      2225      2220      2219      2221      2220      2219      2222
      2221      2219      2222      2222      2225      2226      2222      2225      2227
      2222      2225      2228      2223      2222      2224      2223      2222      2225
      2224      2222      2225      2225      2228      2229      2225      2228      2230
      2225      2228      2231      2226      2225      2227      2226      2225      2228
      2227      2225      2228      2228      2231      2232      2228      2231      2233
      2229      2228      2230      2229      2228      2231      2230      2228      2231
      2231      2233      2234      2231      2233      2235      2232      2231      2233
      2233      2235      2236      2233      2235      2237      2233      2235      2238
      2234      2233      2235      2235      2238      2239      2235      2238      2240
      2235      2238      2241      2236      2235      2237      2236      2235      2238
      2237      2235      2238      2238      2241      2242      2238      2241      2243
      2238      2241      2244      2239      2238      2240      2239      2238      2241
      2240      2238      2241      2241      2244      2245      2241      2244      2246
      2241      2244      2247      2242      2241      2243      2242      2241      2244
      2243      2241      2244      2244      2247      2248      2244      2247      2249
      2244      2247      2250      2245      2244      2246      2245      2244      2247
      2246      2244      2247      2247      2250      2251      2247      2250      2252
      2247      2250      2253      2248      2247      2249      2248      2247      2250
      2249      2247      2250      2250      2253      2254      2250      2253      2255
      2250      2253      2256      2251      2250      2252      2251      2250      2253
      2252      2250      2253      2253      2256      2257      2253      2256      2258
      2253      2256      2259      2254      2253      2255      2254      2253      2256
      2255      2253      2256      2257      2256      2258      2257      2256      2259
      2258      2256      2259      2260      2263      2264      2260      2263      2265
      2260      2263      2266      2261      2260      2262      2261      2260      2263
      2262      2260      2263      2263      2266      2267      2263      2266      2268
      2263      2266      2269      2264      2263      2265      2264      2263      2266
      2265      2263      2266      2266      2269      2270      2266      2269      2271
      2266      2269      2272      2267      2266      2268      2267      2266      2269
      2268      2266      2269      2269      2272      2273      2269      2272      2274
      2269      2272      2275      2270      2269      2271      2270      2269      2272
      2271      2269      2272      2272      2275      2276      2272      2275      2277
      2272      2275      2278      2273      2272      2274      2273      2272      2275
      2274      2272      2275      2275      2278      2279      2275      2278      2280
      2276      2275      2277      2276      2275      2278      2277      2275      2278
      2278      2280      2281      2278      2280      2282      2279      2278      2280
      2280      2282      2283      2280      2282      2284      2280      2282      2285
      2281      2280      2282      2282      2285      2286      2282      2285      2287
      2282      2285      2288      2283      2282      2284      2283      2282      2285
      2284      2282      2285      2285      2288      2289      2285      2288      2290
      2285      2288      2291      2286      2285      2287      2286      2285      2288
      2287      2285      2288      2288      2291      2292      2288      2291      2293
      2288      2291      2294      2289      2288      2290      2289      2288      2291
      2290      2288      2291      2291      2294      2295      2291      2294      2296
      2291      2294      2297      2292      2291      2293      2292      2291      2294
      2293      2291      2294      2294      2297      2298      2294      2297      2299
      2294      2297      2300      2295      2294      2296      2295      2294      2297
      2296      2294      2297      2297      2300      2301      2297      2300      2302
      2297      2300      2303      2298      2297      2299      2298      2297      2300
      2299      2297      2300      2300      2303      2304      2300      2303      2305
      2300      2303      2306      2301      2300      2302      2301      2300      2303
      2302      2300      2303      2304      2303      2305      2304      2303      2306
      2305      2303      2306      2307      2308      2309      2307      2308      2310
      2307      2308      2311      2307      2312      2313      2307      2312      2314
      2307      2312      2315      2307      2316      2317      2307      2316      2318
      2307      2316      2319      2307      2320      2321      2307      2320      2322
      2307      2320      2323      2308      2307      2312      2308      2307      2316
      2308      2307      2320      2309      2308      2310      2309      2308      2311
      2310      2308      2311      2312      2307      2316      2312      2307      2320
      2313      2312      2314      2313      2312      2315      2314      2312      2315
      2316      2307      2320      2317      2316      2318      2317      2316      2319
      2318      2316      2319      2320      2323      2324      2320      2323      2325
      2320      2323      2330      2321      2320      2322      2321      2320      2323
      2322      2320      2323      2323      2330      2326      2324      2323      2325
      2324      2323      2330      2325      2323      2330      2326      2329      2331
      2327      2326      2328      2327      2326      2329      2327      2326      2330
      2328      2326      2329      2328      2326      2330      2329      2326      2330
      2329      2331      2332      2329      2331      2333      2329      2331      2336
      2331      2336      2334      2331      2336      2337      2331      2336      2338
      2332      2331      2333      2332      2331      2336      2333      2331      2336
      2334      2336      2337      2334      2336      2338      2334      2386      2387
      2334      2386      2388      2335      2334      2336      2335      2334      2386
      2336      2334      2386      2336      2338      2339      2336      2338      2340
      2336      2338      2342      2337      2336      2338      2338      2340      2341
      2338      2342      2343      2338      2342      2344      2339      2338      2340
      2339      2338      2342      2340      2338      2342      2342      2344      2345
      2342      2344      2346      2343      2342      2344      2344      2346      2347
      2344      2346      2348      2344      2346      2349      2345      2344      2346
      2346      2349      2350      2346      2349      2351      2346      2349      2352
      2347      2346      2348      2347      2346      2349      2348      2346      2349
      2349      2352      2353      2349      2352      2354      2349      2352      2355
      2350      2349      2351      2350      2349      2352      2351      2349      2352
      2352      2355      2356      2352      2355      2357      2352      2355      2358
      2353      2352      2354      2353      2352      2355      2354      2352      2355
      2355      2358      2359      2355      2358      2360      2355      2358      2361
      2356      2355      2357      2356      2355      2358      2357      2355      2358
      2358      2361      2362      2358      2361      2363      2358      2361      2364
      2359      2358      2360      2359      2358      2361      2360      2358      2361
      2361      2364      2365      2361      2364      2366      2361      2364      2367
      2362      2361      2363      2362      2361      2364      2363      2361      2364
      2364      2367      2368      2364      2367      2369      2364      2367      2370
      2365      2364      2366      2365      2364      2367      2366      2364      2367
      2367      2370      2371      2367      2370      2372      2367      2370      2373
      2368      2367      2369      2368      2367      2370      2369      2367      2370
      2370      2373      2374      2370      2373      2375      2370      2373      2376
      2371      2370      2372      2371      2370      2373      2372      2370      2373
      2373      2376      2377      2373      2376      2378      2373      2376      2379
      2374      2373      2375      2374      2373      2376      2375      2373      2376
      2376      2379      2380      2376      2379      2381      2376      2379      2382
      2377      2376      2378      2377      2376      2379      2378      2376      2379
      2379      2382      2383      2379      2382      2384      2379      2382      2385
      2380      2379      2381      2380      2379      2382      2381      2379      2382
      2383      2382      2384      2383      2382      2385      2384      2382      2385
      2386      2388      2389      2386      2388      2390      2386      2388      2391
      2387      2386      2388      2388      2391      2392      2388      2391      2393
      2388      2391      2394      2389      2388      2390      2389      2388      2391
      2390      2388      2391      2391      2394      2395      2391      2394      2396
      2391      2394      2397      2392      2391      2393      2392      2391      2394
      2393      2391      2394      2394      2397      2398      2394      2397      2399
      2394      2397      2400      2395      2394      2396      2395      2394      2397
      2396      2394      2397      2397      2400      2401      2397      2400      2402
      2397      2400      2403      2398      2397      2399      2398      2397      2400
      2399      2397      2400      2400      2403      2404      2400      2403      2405
      2400      2403      2406      2401      2400      2402      2401      2400      2403
      2402      2400      2403      2403      2406      2407      2403      2406      2408
      2403      2406      2409      2404      2403      2405      2404      2403      2406
      2405      2403      2406      2406      2409      2410      2406      2409      2411
      2406      2409      2412      2407      2406      2408      2407      2406      2409
      2408      2406      2409      2409      2412      2413      2409      2412      2414
      2409      2412      2415      2410      2409      2411      2410      2409      2412
      2411      2409      2412      2412      2415      2416      2412      2415      2417
      2412      2415      2418      2413      2412      2414      2413      2412      2415
      2414      2412      2415      2415      2418      2419      2415      2418      2420
      2415      2418      2421      2416      2415      2417      2416      2415      2418
      2417      2415      2418      2418      2421      2422      2418      2421      2423
      2418      2421      2424      2419      2418      2420      2419      2418      2421
      2420      2418      2421      2421      2424      2425      2421      2424      2426
      2421      2424      2427      2422      2421      2423      2422      2421      2424
      2423      2421      2424      2424      2427      2428      2424      2427      2429
      2424      2427      2430      2425      2424      2426      2425      2424      2427
      2426      2424      2427      2427      2430      2431      2427      2430      2432
      2427      2430      2433      2428      2427      2429      2428      2427      2430
      2429      2427      2430      2430      2433      2434      2430      2433      2435
      2430      2433      2436      2431      2430      2432      2431      2430      2433
      2432      2430      2433      2433      2436      2437      2433      2436      2438
      2433      2436      2439      2434      2433      2435      2434      2433      2436
      2435      2433      2436      2436      2439      2440      2436      2439      2441
      2436      2439      2442      2437      2436      2438      2437      2436      2439
      2438      2436      2439      2439      2442      2443      2439      2442      2444
      2439      2442      2445      2440      2439      2441      2440      2439      2442
      2441      2439      2442      2442      2445      2446      2442      2445      2447
      2442      2445      2448      2443      2442      2444      2443      2442      2445
      2444      2442      2445      2445      2448      2449      2445      2448      2450
      2445      2448      2451      2446      2445      2447      2446      2445      2448
      2447      2445      2448      2448      2451      2452      2448      2451      2453
      2448      2451      2454      2449      2448      2450      2449      2448      2451
      2450      2448      2451      2452      2451      2453      2452      2451      2454
      2453      2451      2454      2455      2459      2460      2455      2459      2461
      2455      2459      2462      2456      2455      2457      2456      2455      2458
      2456      2455      2459      2457      2455      2458      2457      2455      2459
      2458      2455      2459      2459      2462      2463      2459      2462      2464
      2459      2462      2469      2460      2459      2461      2460      2459      2462
      2461      2459      2462      2462      2469      2465      2463      2462      2464
      2463      2462      2469      2464      2462      2469      2465      2468      2470
      2466      2465      2467      2466      2465      2468      2466      2465      2469
      2467      2465      2468      2467      2465      2469      2468      2465      2469
      2468      2470      2471      2468      2470      2472      2468      2470      2473
      2470      2473      2474      2470      2473      2475      2470      2473      2481
      2471      2470      2472      2471      2470      2473      2472      2470      2473
      2473      2475      2476      2473      2481      2482      2473      2481      2483
      2473      2481      2484      2474      2473      2475      2474      2473      2481
      2475      2473      2481      2475      2476      2477      2475      2476      2478
      2476      2478      2479      2476      2478      2480      2476      2478      2490
      2477      2476      2478      2478      2490      2491      2478      2490      2492
      2478      2490      2493      2479      2478      2480      2479      2478      2490
      2480      2478      2490      2481      2484      2485      2482      2481      2483
      2482      2481      2484      2483      2481      2484      2484      2485      2486
      2484      2485      2487      2485      2487      2488      2485      2487      2489
      2485      2487      2537      2486      2485      2487      2487      2537      2538
      2487      2537      2539      2487      2537      2540      2488      2487      2489
      2488      2487      2537      2489      2487      2537      2490      2493      2494
      2490      2493      2495      2490      2493      2496      2491      2490      2492
      2491      2490      2493      2492      2490      2493      2493      2496      2497
      2493      2496      2498      2493      2496      2499      2494      2493      2495
      2494      2493      2496      2495      2493      2496      2496      2499      2500
      2496      2499      2501      2496      2499      2502      2497      2496      2498
      2497      2496      2499      2498      2496      2499      2499      2502      2503
      2499      2502      2504      2499      2502      2505      2500      2499      2501
      2500      2499      2502      2501      2499      2502      2502      2505      2506
      2502      2505      2507      2502      2505      2508      2503      2502      2504
      2503      2502      2505      2504      2502      2505      2505      2508      2509
      2505      2508      2510      2506      2505      2507      2506      2505      2508
      2507      2505      2508      2508      2510      2511      2508      2510      2512
      2509      2508      2510      2510      2512      2513      2510      2512      2514
      2510      2512      2515      2511      2510      2512      2512      2515      2516
      2512      2515      2517      2512      2515      2518      2513      2512      2514
      2513      2512      2515      2514      2512      2515      2515      2518      2519
      2515      2518      2520      2515      2518      2521      2516      2515      2517
      2516      2515      2518      2517      2515      2518      2518      2521      2522
      2518      2521      2523      2518      2521      2524      2519      2518      2520
      2519      2518      2521      2520      2518      2521      2521      2524      2525
      2521      2524      2526      2521      2524      2527      2522      2521      2523
      2522      2521      2524      2523      2521      2524      2524      2527      2528
      2524      2527      2529      2524      2527      2530      2525      2524      2526
      2525      2524      2527      2526      2524      2527      2527      2530      2531
      2527      2530      2532      2527      2530      2533      2528      2527      2529
      2528      2527      2530      2529      2527      2530      2530      2533      2534
      2530      2533      2535      2530      2533      2536      2531      2530      2532
      2531      2530      2533      2532      2530      2533      2534      2533      2535
      2534      2533      2536      2535      2533      2536      2537      2540      2541
      2537      2540      2542      2537      2540      2543      2538      2537      2539
      2538      2537      2540      2539      2537      2540      2540      2543      2544
      2540      2543      2545      2540      2543      2546      2541      2540      2542
      2541      2540      2543      2542      2540      2543      2543      2546      2547
      2543      2546      2548      2543      2546      2549      2544      2543      2545
      2544      2543      2546      2545      2543      2546      2546      2549      2550
      2546      2549      2551      2546      2549      2552      2547      2546      2548
      2547      2546      2549      2548      2546      2549      2549      2552      2553
      2549      2552      2554      2549      2552      2555      2550      2549      2551
      2550      2549      2552      2551      2549      2552      2552      2555      2556
      2552      2555      2557      2553      2552      2554      2553      2552      2555
      2554      2552      2555      2555      2557      2558      2555      2557      2559
      2556      2555      2557      2557      2559      2560      2557      2559      2561
      2557      2559      2562      2558      2557      2559      2559      2562      2563
      2559      2562      2564      2559      2562      2565      2560      2559      2561
      2560      2559      2562      2561      2559      2562      2562      2565      2566
      2562      2565      2567      2562      2565      2568      2563      2562      2564
      2563      2562      2565      2564      2562      2565      2565      2568      2569
      2565      2568      2570      2565      2568      2571      2566      2565      2567
      2566      2565      2568      2567      2565      2568      2568      2571      2572
      2568      2571      2573      2568      2571      2574      2569      2568      2570
      2569      2568      2571      2570      2568      2571      2571      2574      2575
      2571      2574      2576      2571      2574      2577      2572      2571      2573
      2572      2571      2574      2573      2571      2574      2574      2577      2578
      2574      2577      2579      2574      2577      2580      2575      2574      2576
      2575      2574      2577      2576      2574      2577      2577      2580      2581
      2577      2580      2582      2577      2580      2583      2578      2577      2579
      2578      2577      2580      2579      2577      2580      2581      2580      2582
      2581      2580      2583      2582      2580      2583      2584      2585      2586
      2584      2585      2587      2584      2585      2600      2584      2588      2589
      2584      2588      2590      2584      2588      2591      2584      2592      2593
      2584      2592      2594      2584      2592      2595      2584      2596      2597
      2584      2596      2598      2584      2596      2599      2585      2584      2588
      2585      2584      2592      2585      2584      2596      2585      2600      2601
      2585      2600      2602      2585      2600      2606      2586      2585      2587
      2586      2585      2600      2587      2585      2600      2588      2584      2592
      2588      2584      2596      2589      2588      2590      2589      2588      2591
      2590      2588      2591      2592      2584      2596      2593      2592      2594
      2593      2592      2595      2594      2592      2595      2597      2596      2598
      2597      2596      2599      2598      2596      2599      2600      2606      2603
      2601      2600      2602      2601      2600      2606      2602      2600      2606
      2603      2607      2608      2604      2603      2605      2604      2603      2606
      2604      2603      2607      2605      2603      2606      2605      2603      2607
      2606      2603      2607      2607      2608      2609      2607      2608      2610
      2607      2608      2611      2608      2611      2612      2608      2611      2613
      2608      2611      2619      2609      2608      2610      2609      2608      2611
      2610      2608      2611      2611      2613      2614      2611      2619      2620
      2611      2619      2621      2611      2619      2622      2612      2611      2613
      2612      2611      2619      2613      2611      2619      2613      2614      2615
      2613      2614      2616      2614      2616      2617      2614      2616      2618
      2614      2616      2628      2615      2614      2616      2616      2628      2629
      2616      2628      2630      2616      2628      2631      2617      2616      2618
      2617      2616      2628      2618      2616      2628      2619      2622      2623
      2620      2619      2621      2620      2619      2622      2621      2619      2622
      2622      2623      2624      2622      2623      2625      2623      2625      2626
      2623      2625      2627      2623      2625      2675      2624      2623      2625
      2625      2675      2676      2625      2675      2677      2625      2675      2678
      2626      2625      2627      2626      2625      2675      2627      2625      2675
      2628      2631      2632      2628      2631      2633      2628      2631      2634
      2629      2628      2630      2629      2628      2631      2630      2628      2631
      2631      2634      2635      2631      2634      2636      2631      2634      2637
      2632      2631      2633      2632      2631      2634      2633      2631      2634
      2634      2637      2638      2634      2637      2639      2634      2637      2640
      2635      2634      2636      2635      2634      2637      2636      2634      2637
      2637      2640      2641      2637      2640      2642      2637      2640      2643
      2638      2637      2639      2638      2637      2640      2639      2637      2640
      2640      2643      2644      2640      2643      2645      2640      2643      2646
      2641      2640      2642      2641      2640      2643      2642      2640      2643
      2643      2646      2647      2643      2646      2648      2644      2643      2645
      2644      2643      2646      2645      2643      2646      2646      2648      2649
      2646      2648      2650      2647      2646      2648      2648      2650      2651
      2648      2650      2652      2648      2650      2653      2649      2648      2650
      2650      2653      2654      2650      2653      2655      2650      2653      2656
      2651      2650      2652      2651      2650      2653      2652      2650      2653
      2653      2656      2657      2653      2656      2658      2653      2656      2659
      2654      2653      2655      2654      2653      2656      2655      2653      2656
      2656      2659      2660      2656      2659      2661      2656      2659      2662
      2657      2656      2658      2657      2656      2659      2658      2656      2659
      2659      2662      2663      2659      2662      2664      2659      2662      2665
      2660      2659      2661      2660      2659      2662      2661      2659      2662
      2662      2665      2666      2662      2665      2667      2662      2665      2668
      2663      2662      2664      2663      2662      2665      2664      2662      2665
      2665      2668      2669      2665      2668      2670      2665      2668      2671
      2666      2665      2667      2666      2665      2668      2667      2665      2668
      2668      2671      2672      2668      2671      2673      2668      2671      2674
      2669      2668      2670      2669      2668      2671      2670      2668      2671
      2672      2671      2673      2672      2671      2674      2673      2671      2674
      2675      2678      2679      2675      2678      2680      2675      2678      2681
      2676      2675      2677      2676      2675      2678      2677      2675      2678
      2678      2681      2682      2678      2681      2683      2678      2681      2684
      2679      2678      2680      2679      2678      2681      2680      2678      2681
      2681      2684      2685      2681      2684      2686      2681      2684      2687
      2682      2681      2683      2682      2681      2684      2683      2681      2684
      2684      2687      2688      2684      2687      2689      2684      2687      2690
      2685      2684      2686      2685      2684      2687      2686      2684      2687
      2687      2690      2691      2687      2690      2692      2687      2690      2693
      2688      2687      2689      2688      2687      2690      2689      2687      2690
      2690      2693      2694      2690      2693      2695      2691      2690      2692
      2691      2690      2693      2692      2690      2693      2693      2695      2696
      2693      2695      2697      2694      2693      2695      2695      2697      2698
      2695      2697      2699      2695      2697      2700      2696      2695      2697
      2697      2700      2701      2697      2700      2702      2697      2700      2703
      2698      2697      2699      2698      2697      2700      2699      2697      2700
      2700      2703      2704      2700      2703      2705      2700      2703      2706
      2701      2700      2702      2701      2700      2703      2702      2700      2703
      2703      2706      2707      2703      2706      2708      2703      2706      2709
      2704      2703      2705      2704      2703      2706      2705      2703      2706
      2706      2709      2710      2706      2709      2711      2706      2709      2712
      2707      2706      2708      2707      2706      2709      2708      2706      2709
      2709      2712      2713      2709      2712      2714      2709      2712      2715
      2710      2709      2711      2710      2709      2712      2711      2709      2712
      2712      2715      2716      2712      2715      2717      2712      2715      2718
      2713      2712      2714      2713      2712      2715      2714      2712      2715
      2715      2718      2719      2715      2718      2720      2715      2718      2721
      2716      2715      2717      2716      2715      2718      2717      2715      2718
      2719      2718      2720      2719      2718      2721      2720      2718      2721
      2722      2723      2724      2722      2723      2725      2722      2723      2738
      2722      2726      2727      2722      2726      2728      2722      2726      2729
      2722      2730      2731      2722      2730      2732      2722      2730      2733
      2722      2734      2735      2722      2734      2736      2722      2734      2737
      2723      2722      2726      2723      2722      2730      2723      2722      2734
      2723      2738      2739      2723      2738      2740      2723      2738      2744
      2724      2723      2725      2724      2723      2738      2725      2723      2738
      2726      2722      2730      2726      2722      2734      2727      2726      2728
      2727      2726      2729      2728      2726      2729      2730      2722      2734
      2731      2730      2732      2731      2730      2733      2732      2730      2733
      2735      2734      2736      2735      2734      2737      2736      2734      2737
      2738      2744      2741      2739      2738      2740      2739      2738      2744
      2740      2738      2744      2741      2745      2746      2742      2741      2743
      2742      2741      2744      2742      2741      2745      2743      2741      2744
      2743      2741      2745      2744      2741      2745      2745      2746      2747
      2745      2746      2748      2745      2746      2749      2746      2749      2750
      2746      2749      2751      2746      2749      2757      2747      2746      2748
      2747      2746      2749      2748      2746      2749      2749      2751      2752
      2749      2757      2758      2749      2757      2759      2749      2757      2760
      2750      2749      2751      2750      2749      2757      2751      2749      2757
      2751      2752      2753      2751      2752      2754      2752      2754      2755
      2752      2754      2756      2752      2754      2766      2753      2752      2754
      2754      2766      2767      2754      2766      2768      2754      2766      2769
      2755      2754      2756      2755      2754      2766      2756      2754      2766
      2757      2760      2761      2758      2757      2759      2758      2757      2760
      2759      2757      2760      2760      2761      2762      2760      2761      2763
      2761      2763      2764      2761      2763      2765      2761      2763      2813
      2762      2761      2763      2763      2813      2814      2763      2813      2815
      2763      2813      2816      2764      2763      2765      2764      2763      2813
      2765      2763      2813      2766      2769      2770      2766      2769      2771
      2766      2769      2772      2767      2766      2768      2767      2766      2769
      2768      2766      2769      2769      2772      2773      2769      2772      2774
      2769      2772      2775      2770      2769      2771      2770      2769      2772
      2771      2769      2772      2772      2775      2776      2772      2775      2777
      2772      2775      2778      2773      2772      2774      2773      2772      2775
      2774      2772      2775      2775      2778      2779      2775      2778      2780
      2775      2778      2781      2776      2775      2777      2776      2775      2778
      2777      2775      2778      2778      2781      2782      2778      2781      2783
      2778      2781      2784      2779      2778      2780      2779      2778      2781
      2780      2778      2781      2781      2784      2785      2781      2784      2786
      2782      2781      2783      2782      2781      2784      2783      2781      2784
      2784      2786      2787      2784      2786      2788      2785      2784      2786
      2786      2788      2789      2786      2788      2790      2786      2788      2791
      2787      2786      2788      2788      2791      2792      2788      2791      2793
      2788      2791      2794      2789      2788      2790      2789      2788      2791
      2790      2788      2791      2791      2794      2795      2791      2794      2796
      2791      2794      2797      2792      2791      2793      2792      2791      2794
      2793      2791      2794      2794      2797      2798      2794      2797      2799
      2794      2797      2800      2795      2794      2796      2795      2794      2797
      2796      2794      2797      2797      2800      2801      2797      2800      2802
      2797      2800      2803      2798      2797      2799      2798      2797      2800
      2799      2797      2800      2800      2803      2804      2800      2803      2805
      2800      2803      2806      2801      2800      2802      2801      2800      2803
      2802      2800      2803      2803      2806      2807      2803      2806      2808
      2803      2806      2809      2804      2803      2805      2804      2803      2806
      2805      2803      2806      2806      2809      2810      2806      2809      2811
      2806      2809      2812      2807      2806      2808      2807      2806      2809
      2808      2806      2809      2810      2809      2811      2810      2809      2812
      2811      2809      2812      2813      2816      2817      2813      2816      2818
      2813      2816      2819      2814      2813      2815      2814      2813      2816
      2815      2813      2816      2816      2819      2820      2816      2819      2821
      2816      2819      2822      2817      2816      2818      2817      2816      2819
      2818      2816      2819      2819      2822      2823      2819      2822      2824
      2819      2822      2825      2820      2819      2821      2820      2819      2822
      2821      2819      2822      2822      2825      2826      2822      2825      2827
      2822      2825      2828      2823      2822      2824      2823      2822      2825
      2824      2822      2825      2825      2828      2829      2825      2828      2830
      2825      2828      2831      2826      2825      2827      2826      2825      2828
      2827      2825      2828      2828      2831      2832      2828      2831      2833
      2829      2828      2830      2829      2828      2831      2830      2828      2831
      2831      2833      2834      2831      2833      2835      2832      2831      2833
      2833      2835      2836      2833      2835      2837      2833      2835      2838
      2834      2833      2835      2835      2838      2839      2835      2838      2840
      2835      2838      2841      2836      2835      2837      2836      2835      2838
      2837      2835      2838      2838      2841      2842      2838      2841      2843
      2838      2841      2844      2839      2838      2840      2839      2838      2841
      2840      2838      2841      2841      2844      2845      2841      2844      2846
      2841      2844      2847      2842      2841      2843      2842      2841      2844
      2843      2841      2844      2844      2847      2848      2844      2847      2849
      2844      2847      2850      2845      2844      2846      2845      2844      2847
      2846      2844      2847      2847      2850      2851      2847      2850      2852
      2847      2850      2853      2848      2847      2849      2848      2847      2850
      2849      2847      2850      2850      2853      2854      2850      2853      2855
      2850      2853      2856      2851      2850      2852      2851      2850      2853
      2852      2850      2853      2853      2856      2857      2853      2856      2858
      2853      2856      2859      2854      2853      2855      2854      2853      2856
      2855      2853      2856      2857      2856      2858      2857      2856      2859
      2858      2856      2859      2860      2861      2862      2860      2861      2863
      2860      2861      2864      2860      2865      2866      2860      2865      2867
      2860      2865      2868      2860      2869      2870      2860      2869      2871
      2860      2869      2872      2860      2873      2874      2860      2873      2875
      2860      2873      2876      2861      2860      2865      2861      2860      2869
      2861      2860      2873      2862      2861      2863      2862      2861      2864
      2863      2861      2864      2865      2860      2869      2865      2860      2873
      2866      2865      2867      2866      2865      2868      2867      2865      2868
      2869      2860      2873      2870      2869      2871      2870      2869      2872
      2871      2869      2872      2873      2876      2877      2873      2876      2878
      2873      2876      2883      2874      2873      2875      2874      2873      2876
      2875      2873      2876      2876      2883      2879      2877      2876      2878
      2877      2876      2883      2878      2876      2883      2879      2882      2884
      2880      2879      2881      2880      2879      2882      2880      2879      2883
      2881      2879      2882      2881      2879      2883      2882      2879      2883
      2882      2884      2885      2882      2884      2886      2882      2884      2889
      2884      2889      2887      2884      2889      2890      2884      2889      2891
      2885      2884      2886      2885      2884      2889      2886      2884      2889
      2887      2889      2890      2887      2889      2891      2887      2939      2940
      2887      2939      2941      2888      2887      2889      2888      2887      2939
      2889      2887      2939      2889      2891      2892      2889      2891      2893
      2889      2891      2895      2890      2889      2891      2891      2893      2894
      2891      2895      2896      2891      2895      2897      2892      2891      2893
      2892      2891      2895      2893      2891      2895      2895      2897      2898
      2895      2897      2899      2896      2895      2897      2897      2899      2900
      2897      2899      2901      2897      2899      2902      2898      2897      2899
      2899      2902      2903      2899      2902      2904      2899      2902      2905
      2900      2899      2901      2900      2899      2902      2901      2899      2902
      2902      2905      2906      2902      2905      2907      2902      2905      2908
      2903      2902      2904      2903      2902      2905      2904      2902      2905
      2905      2908      2909      2905      2908      2910      2905      2908      2911
      2906      2905      2907      2906      2905      2908      2907      2905      2908
      2908      2911      2912      2908      2911      2913      2908      2911      2914
      2909      2908      2910      2909      2908      2911      2910      2908      2911
      2911      2914      2915      2911      2914      2916      2911      2914      2917
      2912      2911      2913      2912      2911      2914      2913      2911      2914
      2914      2917      2918      2914      2917      2919      2914      2917      2920
      2915      2914      2916      2915      2914      2917      2916      2914      2917
      2917      2920      2921      2917      2920      2922      2917      2920      2923
      2918      2917      2919      2918      2917      2920      2919      2917      2920
      2920      2923      2924      2920      2923      2925      2920      2923      2926
      2921      2920      2922      2921      2920      2923      2922      2920      2923
      2923      2926      2927      2923      2926      2928      2923      2926      2929
      2924      2923      2925      2924      2923      2926      2925      2923      2926
      2926      2929      2930      2926      2929      2931      2926      2929      2932
      2927      2926      2928      2927      2926      2929      2928      2926      2929
      2929      2932      2933      2929      2932      2934      2929      2932      2935
      2930      2929      2931      2930      2929      2932      2931      2929      2932
      2932      2935      2936      2932      2935      2937      2932      2935      2938
      2933      2932      2934      2933      2932      2935      2934      2932      2935
      2936      2935      2937      2936      2935      2938      2937      2935      2938
      2939      2941      2942      2939      2941      2943      2939      2941      2944
      2940      2939      2941      2941      2944      2945      2941      2944      2946
      2941      2944      2947      2942      2941      2943      2942      2941      2944
      2943      2941      2944      2944      2947      2948      2944      2947      2949
      2944      2947      2950      2945      2944      2946      2945      2944      2947
      2946      2944      2947      2947      2950      2951      2947      2950      2952
      2947      2950      2953      2948      2947      2949      2948      2947      2950
      2949      2947      2950      2950      2953      2954      2950      2953      2955
      2950      2953      2956      2951      2950      2952      2951      2950      2953
      2952      2950      2953      2953      2956      2957      2953      2956      2958
      2953      2956      2959      2954      2953      2955      2954      2953      2956
      2955      2953      2956      2956      2959      2960      2956      2959      2961
      2956      2959      2962      2957      2956      2958      2957      2956      2959
      2958      2956      2959      2959      2962      2963      2959      2962      2964
      2959      2962      2965      2960      2959      2961      2960      2959      2962
      2961      2959      2962      2962      2965      2966      2962      2965      2967
      2962      2965      2968      2963      2962      2964      2963      2962      2965
      2964      2962      2965      2965      2968      2969      2965      2968      2970
      2965      2968      2971      2966      2965      2967      2966      2965      2968
      2967      2965      2968      2968      2971      2972      2968      2971      2973
      2968      2971      2974      2969      2968      2970      2969      2968      2971
      2970      2968      2971      2971      2974      2975      2971      2974      2976
      2971      2974      2977      2972      2971      2973      2972      2971      2974
      2973      2971      2974      2974      2977      2978      2974      2977      2979
      2974      2977      2980      2975      2974      2976      2975      2974      2977
      2976      2974      2977      2977      2980      2981      2977      2980      2982
      2977      2980      2983      2978      2977      2979      2978      2977      2980
      2979      2977      2980      2980      2983      2984      2980      2983      2985
      2980      2983      2986      2981      2980      2982      2981      2980      2983
      2982      2980      2983      2983      2986      2987      2983      2986      2988
      2983      2986      2989      2984      2983      2985      2984      2983      2986
      2985      2983      2986      2986      2989      2990      2986      2989      2991
      2986      2989      2992      2987      2986      2988      2987      2986      2989
      2988      2986      2989      2989      2992      2993      2989      2992      2994
      2989      2992      2995      2990      2989      2991      2990      2989      2992
      2991      2989      2992      2992      2995      2996      2992      2995      2997
      2992      2995      2998      2993      2992      2994      2993      2992      2995
      2994      2992      2995      2995      2998      2999      2995      2998      3000
      2995      2998      3001      2996      2995      2997      2996      2995      2998
      2997      2995      2998      2998      3001      3002      2998      3001      3003
      2998      3001      3004      2999      2998      3000      2999      2998      3001
      3000      2998      3001      3001      3004      3005      3001      3004      3006
      3001      3004      3007      3002      3001      3003      3002      3001      3004
      3003      3001      3004      3005      3004      3006      3005      3004      3007
      3006      3004      3007      3008      3009      3010      3008      3009      3011
      3008      3009      3024      3008      3012      3013      3008      3012      3014
      3008      3012      3015      3008      3016      3017      3008      3016      3018
      3008      3016      3019      3008      3020      3021      3008      3020      3022
      3008      3020      3023      3009      3008      3012      3009      3008      3016
      3009      3008      3020      3009      3024      3025      3009      3024      3026
      3009      3024      3030      3010      3009      3011      3010      3009      3024
      3011      3009      3024      3012      3008      3016      3012      3008      3020
      3013      3012      3014      3013      3012      3015      3014      3012      3015
      3016      3008      3020      3017      3016      3018      3017      3016      3019
      3018      3016      3019      3021      3020      3022      3021      3020      3023
      3022      3020      3023      3024      3030      3027      3025      3024      3026
      3025      3024      3030      3026      3024      3030      3027      3031      3032
      3028      3027      3029      3028      3027      3030      3028      3027      3031
      3029      3027      3030      3029      3027      3031      3030      3027      3031
      3031      3032      3033      3031      3032      3034      3031      3032      3035
      3032      3035      3036      3032      3035      3037      3032      3035      3043
      3033      3032      3034      3033      3032      3035      3034      3032      3035
      3035      3037      3038      3035      3043      3044      3035      3043      3045
      3035      3043      3046      3036      3035      3037      3036      3035      3043
      3037      3035      3043      3037      3038      3039      3037      3038      3040
      3038      3040      3041      3038      3040      3042      3038      3040      3052
      3039      3038      3040      3040      3052      3053      3040      3052      3054
      3040      3052      3055      3041      3040      3042      3041      3040      3052
      3042      3040      3052      3043      3046      3047      3044      3043      3045
      3044      3043      3046      3045      3043      3046      3046      3047      3048
      3046      3047      3049      3047      3049      3050      3047      3049      3051
      3047      3049      3099      3048      3047      3049      3049      3099      3100
      3049      3099      3101      3049      3099      3102      3050      3049      3051
      3050      3049      3099      3051      3049      3099      3052      3055      3056
      3052      3055      3057      3052      3055      3058      3053      3052      3054
      3053      3052      3055      3054      3052      3055      3055      3058      3059
      3055      3058      3060      3055      3058      3061      3056      3055      3057
      3056      3055      3058      3057      3055      3058      3058      3061      3062
      3058      3061      3063      3058      3061      3064      3059      3058      3060
      3059      3058      3061      3060      3058      3061      3061      3064      3065
      3061      3064      3066      3061      3064      3067      3062      3061      3063
      3062      3061      3064      3063      3061      3064      3064      3067      3068
      3064      3067      3069      3064      3067      3070      3065      3064      3066
      3065      3064      3067      3066      3064      3067      3067      3070      3071
      3067      3070      3072      3068      3067      3069      3068      3067      3070
      3069      3067      3070      3070      3072      3073      3070      3072      3074
      3071      3070      3072      3072      3074      3075      3072      3074      3076
      3072      3074      3077      3073      3072      3074      3074      3077      3078
      3074      3077      3079      3074      3077      3080      3075      3074      3076
      3075      3074      3077      3076      3074      3077      3077      3080      3081
      3077      3080      3082      3077      3080      3083      3078      3077      3079
      3078      3077      3080      3079      3077      3080      3080      3083      3084
      3080      3083      3085      3080      3083      3086      3081      3080      3082
      3081      3080      3083      3082      3080      3083      3083      3086      3087
      3083      3086      3088      3083      3086      3089      3084      3083      3085
      3084      3083      3086      3085      3083      3086      3086      3089      3090
      3086      3089      3091      3086      3089      3092      3087      3086      3088
      3087      3086      3089      3088      3086      3089      3089      3092      3093
      3089      3092      3094      3089      3092      3095      3090      3089      3091
      3090      3089      3092      3091      3089      3092      3092      3095      3096
      3092      3095      3097      3092      3095      3098      3093      3092      3094
      3093      3092      3095      3094      3092      3095      3096      3095      3097
      3096      3095      3098      3097      3095      3098      3099      3102      3103
      3099      3102      3104      3099      3102      3105      3100      3099      3101
      3100      3099      3102      3101      3099      3102      3102      3105      3106
      3102      3105      3107      3102      3105      3108      3103      3102      3104
      3103      3102      3105      3104      3102      3105      3105      3108      3109
      3105      3108      3110      3105      3108      3111      3106      3105      3107
      3106      3105      3108      3107      3105      3108      3108      3111      3112
      3108      3111      3113      3108      3111      3114      3109      3108      3110
      3109      3108      3111      3110      3108      3111      3111      3114      3115
      3111      3114      3116      3111      3114      3117      3112      3111      3113
      3112      3111      3114      3113      3111      3114      3114      3117      3118
      3114      3117      3119      3115      3114      3116      3115      3114      3117
      3116      3114      3117      3117      3119      3120      3117      3119      3121
      3118      3117      3119      3119      3121      3122      3119      3121      3123
      3119      3121      3124      3120      3119      3121      3121      3124      3125
      3121      3124      3126      3121      3124      3127      3122      3121      3123
      3122      3121      3124      3123      3121      3124      3124      3127      3128
      3124      3127      3129      3124      3127      3130      3125      3124      3126
      3125      3124      3127      3126      3124      3127      3127      3130      3131
      3127      3130      3132      3127      3130      3133      3128      3127      3129
      3128      3127      3130      3129      3127      3130      3130      3133      3134
      3130      3133      3135      3130      3133      3136      3131      3130      3132
      3131      3130      3133      3132      3130      3133      3133      3136      3137
      3133      3136      3138      3133      3136      3139      3134      3133      3135
      3134      3133      3136      3135      3133      3136      3136      3139      3140
      3136      3139      3141      3136      3139      3142      3137      3136      3138
      3137      3136      3139      3138      3136      3139      3139      3142      3143
      3139      3142      3144      3139      3142      3145      3140      3139      3141
      3140      3139      3142      3141      3139      3142      3143      3142      3144
      3143      3142      3145      3144      3142      3145      3146      3150      3151
      3146      3150      3152      3146      3150      3153      3147      3146      3148
      3147      3146      3149      3147      3146      3150      3148      3146      3149
      3148      3146      3150      3149      3146      3150      3150      3153      3154
      3150      3153      3155      3150      3153      3160      3151      3150      3152
      3151      3150      3153      3152      3150      3153      3153      3160      3156
      3154      3153      3155      3154      3153      3160      3155      3153      3160
      3156      3159      3161      3157      3156      3158      3157      3156      3159
      3157      3156      3160      3158      3156      3159      3158      3156      3160
      3159      3156      3160      3159      3161      3162      3159      3161      3163
      3159      3161      3164      3161      3164      3165      3161      3164      3166
      3161      3164      3172      3162      3161      3163      3162      3161      3164
      3163      3161      3164      3164      3166      3167      3164      3172      3173
      3164      3172      3174      3164      3172      3175      3165      3164      3166
      3165      3164      3172      3166      3164      3172      3166      3167      3168
      3166      3167      3169      3167      3169      3170      3167      3169      3171
      3167      3169      3181      3168      3167      3169      3169      3181      3182
      3169      3181      3183      3169      3181      3184      3170      3169      3171
      3170      3169      3181      3171      3169      3181      3172      3175      3176
      3173      3172      3174      3173      3172      3175      3174      3172      3175
      3175      3176      3177      3175      3176      3178      3176      3178      3179
      3176      3178      3180      3176      3178      3228      3177      3176      3178
      3178      3228      3229      3178      3228      3230      3178      3228      3231
      3179      3178      3180      3179      3178      3228      3180      3178      3228
      3181      3184      3185      3181      3184      3186      3181      3184      3187
      3182      3181      3183      3182      3181      3184      3183      3181      3184
      3184      3187      3188      3184      3187      3189      3184      3187      3190
      3185      3184      3186      3185      3184      3187      3186      3184      3187
      3187      3190      3191      3187      3190      3192      3187      3190      3193
      3188      3187      3189      3188      3187      3190      3189      3187      3190
      3190      3193      3194      3190      3193      3195      3190      3193      3196
      3191      3190      3192      3191      3190      3193      3192      3190      3193
      3193      3196      3197      3193      3196      3198      3193      3196      3199
      3194      3193      3195      3194      3193      3196      3195      3193      3196
      3196      3199      3200      3196      3199      3201      3197      3196      3198
      3197      3196      3199      3198      3196      3199      3199      3201      3202
      3199      3201      3203      3200      3199      3201      3201      3203      3204
      3201      3203      3205      3201      3203      3206      3202      3201      3203
      3203      3206      3207      3203      3206      3208      3203      3206      3209
      3204      3203      3205      3204      3203      3206      3205      3203      3206
      3206      3209      3210      3206      3209      3211      3206      3209      3212
      3207      3206      3208      3207      3206      3209      3208      3206      3209
      3209      3212      3213      3209      3212      3214      3209      3212      3215
      3210      3209      3211      3210      3209      3212      3211      3209      3212
      3212      3215      3216      3212      3215      3217      3212      3215      3218
      3213      3212      3214      3213      3212      3215      3214      3212      3215
      3215      3218      3219      3215      3218      3220      3215      3218      3221
      3216      3215      3217      3216      3215      3218      3217      3215      3218
      3218      3221      3222      3218      3221      3223      3218      3221      3224
      3219      3218      3220      3219      3218      3221      3220      3218      3221
      3221      3224      3225      3221      3224      3226      3221      3224      3227
      3222      3221      3223      3222      3221      3224      3223      3221      3224
      3225      3224      3226      3225      3224      3227      3226      3224      3227
      3228      3231      3232      3228      3231      3233      3228      3231      3234
      3229      3228      3230      3229      3228      3231      3230      3228      3231
      3231      3234      3235      3231      3234      3236      3231      3234      3237
      3232      3231      3233      3232      3231      3234      3233      3231      3234
      3234      3237      3238      3234      3237      3239      3234      3237      3240
      3235      3234      3236      3235      3234      3237      3236      3234      3237
      3237      3240      3241      3237      3240      3242      3237      3240      3243
      3238      3237      3239      3238      3237      3240      3239      3237      3240
      3240      3243      3244      3240      3243      3245      3240      3243      3246
      3241      3240      3242      3241      3240      3243      3242      3240      3243
      3243      3246      3247      3243      3246      3248      3244      3243      3245
      3244      3243      3246      3245      3243      3246      3246      3248      3249
      3246      3248      3250      3247      3246      3248      3248      3250      3251
      3248      3250      3252      3248      3250      3253      3249      3248      3250
      3250      3253      3254      3250      3253      3255      3250      3253      3256
      3251      3250      3252      3251      3250      3253      3252      3250      3253
      3253      3256      3257      3253      3256      3258      3253      3256      3259
      3254      3253      3255      3254      3253      3256      3255      3253      3256
      3256      3259      3260      3256      3259      3261      3256      3259      3262
      3257      3256      3258      3257      3256      3259      3258      3256      3259
      3259      3262      3263      3259      3262      3264      3259      3262      3265
      3260      3259      3261      3260      3259      3262      3261      3259      3262
      3262      3265      3266      3262      3265      3267      3262      3265      3268
      3263      3262      3264      3263      3262      3265      3264      3262      3265
      3265      3268      3269      3265      3268      3270      3265      3268      3271
      3266      3265      3267      3266      3265      3268      3267      3265      3268
      3268      3271      3272      3268      3271      3273      3268      3271      3274
      3269      3268      3270      3269      3268      3271      3270      3268      3271
      3272      3271      3273      3272      3271      3274      3273      3271      3274
      3275      3279      3280      3275      3279      3281      3275      3279      3282
      3276      3275      3277      3276      3275      3278      3276      3275      3279
      3277      3275      3278      3277      3275      3279      3278      3275      3279
      3279      3282      3283      3279      3282      3284      3279      3282      3289
      3280      3279      3281      3280      3279      3282      3281      3279      3282
      3282      3289      3285      3283      3282      3284      3283      3282      3289
      3284      3282      3289      3285      3288      3290      3286      3285      3287
      3286      3285      3288      3286      3285      3289      3287      3285      3288
      3287      3285      3289      3288      3285      3289      3288      3290      3291
      3288      3290      3292      3288      3290      3293      3290      3293      3294
      3290      3293      3295      3290      3293      3301      3291      3290      3292
      3291      3290      3293      3292      3290      3293      3293      3295      3296
      3293      3301      3302      3293      3301      3303      3293      3301      3304
      3294      3293      3295      3294      3293      3301      3295      3293      3301
      3295      3296      3297      3295      3296      3298      3296      3298      3299
      3296      3298      3300      3296      3298      3310      3297      3296      3298
      3298      3310      3311      3298      3310      3312      3298      3310      3313
      3299      3298      3300      3299      3298      3310      3300      3298      3310
      3301      3304      3305      3302      3301      3303      3302      3301      3304
      3303      3301      3304      3304      3305      3306      3304      3305      3307
      3305      3307      3308      3305      3307      3309      3305      3307      3357
      3306      3305      3307      3307      3357      3358      3307      3357      3359
      3307      3357      3360      3308      3307      3309      3308      3307      3357
      3309      3307      3357      3310      3313      3314      3310      3313      3315
      3310      3313      3316      3311      3310      3312      3311      3310      3313
      3312      3310      3313      3313      3316      3317      3313      3316      3318
      3313      3316      3319      3314      3313      3315      3314      3313      3316
      3315      3313      3316      3316      3319      3320      3316      3319      3321
      3316      3319      3322      3317      3316      3318      3317      3316      3319
      3318      3316      3319      3319      3322      3323      3319      3322      3324
      3319      3322      3325      3320      3319      3321      3320      3319      3322
      3321      3319      3322      3322      3325      3326      3322      3325      3327
      3322      3325      3328      3323      3322      3324      3323      3322      3325
      3324      3322      3325      3325      3328      3329      3325      3328      3330
      3326      3325      3327      3326      3325      3328      3327      3325      3328
      3328      3330      3331      3328      3330      3332      3329      3328      3330
      3330      3332      3333      3330      3332      3334      3330      3332      3335
      3331      3330      3332      3332      3335      3336      3332      3335      3337
      3332      3335      3338      3333      3332      3334      3333      3332      3335
      3334      3332      3335      3335      3338      3339      3335      3338      3340
      3335      3338      3341      3336      3335      3337      3336      3335      3338
      3337      3335      3338      3338      3341      3342      3338      3341      3343
      3338      3341      3344      3339      3338      3340      3339      3338      3341
      3340      3338      3341      3341      3344      3345      3341      3344      3346
      3341      3344      3347      3342      3341      3343      3342      3341      3344
      3343      3341      3344      3344      3347      3348      3344      3347      3349
      3344      3347      3350      3345      3344      3346      3345      3344      3347
      3346      3344      3347      3347      3350      3351      3347      3350      3352
      3347      3350      3353      3348      3347      3349      3348      3347      3350
      3349      3347      3350      3350      3353      3354      3350      3353      3355
      3350      3353      3356      3351      3350      3352      3351      3350      3353
      3352      3350      3353      3354      3353      3355      3354      3353      3356
      3355      3353      3356      3357      3360      3361      3357      3360      3362
      3357      3360      3363      3358      3357      3359      3358      3357      3360
      3359      3357      3360      3360      3363      3364      3360      3363      3365
      3360      3363      3366      3361      3360      3362      3361      3360      3363
      3362      3360      3363      3363      3366      3367      3363      3366      3368
      3363      3366      3369      3364      3363      3365      3364      3363      3366
      3365      3363      3366      3366      3369      3370      3366      3369      3371
      3366      3369      3372      3367      3366      3368      3367      3366      3369
      3368      3366      3369      3369      3372      3373      3369      3372      3374
      3369      3372      3375      3370      3369      3371      3370      3369      3372
      3371      3369      3372      3372      3375      3376      3372      3375      3377
      3373      3372      3374      3373      3372      3375      3374      3372      3375
      3375      3377      3378      3375      3377      3379      3376      3375      3377
      3377      3379      3380      3377      3379      3381      3377      3379      3382
      3378      3377      3379      3379      3382      3383      3379      3382      3384
      3379      3382      3385      3380      3379      3381      3380      3379      3382
      3381      3379      3382      3382      3385      3386      3382      3385      3387
      3382      3385      3388      3383      3382      3384      3383      3382      3385
      3384      3382      3385      3385      3388      3389      3385      3388      3390
      3385      3388      3391      3386      3385      3387      3386      3385      3388
      3387      3385      3388      3388      3391      3392      3388      3391      3393
      3388      3391      3394      3389      3388      3390      3389      3388      3391
      3390      3388      3391      3391      3394      3395      3391      3394      3396
      3391      3394      3397      3392      3391      3393      3392      3391      3394
      3393      3391      3394      3394      3397      3398      3394      3397      3399
      3394      3397      3400      3395      3394      3396      3395      3394      3397
      3396      3394      3397      3397      3400      3401      3397      3400      3402
      3397      3400      3403      3398      3397      3399      3398      3397      3400
      3399      3397      3400      3401      3400      3402      3401      3400      3403
      3402      3400      3403      3404      3408      3409      3404      3408      3410
      3404      3408      3411      3405      3404      3406      3405      3404      3407
      3405      3404      3408      3406      3404      3407      3406      3404      3408
      3407      3404      3408      3408      3411      3412      3408      3411      3413
      3408      3411      3418      3409      3408      3410      3409      3408      3411
      3410      3408      3411      3411      3418      3414      3412      3411      3413
      3412      3411      3418      3413      3411      3418      3414      3417      3419
      3415      3414      3416      3415      3414      3417      3415      3414      3418
      3416      3414      3417      3416      3414      3418      3417      3414      3418
      3417      3419      3420      3417      3419      3421      3417      3419      3422
      3419      3422      3423      3419      3422      3424      3419      3422      3430
      3420      3419      3421      3420      3419      3422      3421      3419      3422
      3422      3424      3425      3422      3430      3431      3422      3430      3432
      3422      3430      3433      3423      3422      3424      3423      3422      3430
      3424      3422      3430      3424      3425      3426      3424      3425      3427
      3425      3427      3428      3425      3427      3429      3425      3427      3439
      3426      3425      3427      3427      3439      3440      3427      3439      3441
      3427      3439      3442      3428      3427      3429      3428      3427      3439
      3429      3427      3439      3430      3433      3434      3431      3430      3432
      3431      3430      3433      3432      3430      3433      3433      3434      3435
      3433      3434      3436      3434      3436      3437      3434      3436      3438
      3434      3436      3486      3435      3434      3436      3436      3486      3487
      3436      3486      3488      3436      3486      3489      3437      3436      3438
      3437      3436      3486      3438      3436      3486      3439      3442      3443
      3439      3442      3444      3439      3442      3445      3440      3439      3441
      3440      3439      3442      3441      3439      3442      3442      3445      3446
      3442      3445      3447      3442      3445      3448      3443      3442      3444
      3443      3442      3445      3444      3442      3445      3445      3448      3449
      3445      3448      3450      3445      3448      3451      3446      3445      3447
      3446      3445      3448      3447      3445      3448      3448      3451      3452
      3448      3451      3453      3448      3451      3454      3449      3448      3450
      3449      3448      3451      3450      3448      3451      3451      3454      3455
      3451      3454      3456      3451      3454      3457      3452      3451      3453
      3452      3451      3454      3453      3451      3454      3454      3457      3458
      3454      3457      3459      3455      3454      3456      3455      3454      3457
      3456      3454      3457      3457      3459      3460      3457      3459      3461
      3458      3457      3459      3459      3461      3462      3459      3461      3463
      3459      3461      3464      3460      3459      3461      3461      3464      3465
      3461      3464      3466      3461      3464      3467      3462      3461      3463
      3462      3461      3464      3463      3461      3464      3464      3467      3468
      3464      3467      3469      3464      3467      3470      3465      3464      3466
      3465      3464      3467      3466      3464      3467      3467      3470      3471
      3467      3470      3472      3467      3470      3473      3468      3467      3469
      3468      3467      3470      3469      3467      3470      3470      3473      3474
      3470      3473      3475      3470      3473      3476      3471      3470      3472
      3471      3470      3473      3472      3470      3473      3473      3476      3477
      3473      3476      3478      3473      3476      3479      3474      3473      3475
      3474      3473      3476      3475      3473      3476      3476      3479      3480
      3476      3479      3481      3476      3479      3482      3477      3476      3478
      3477      3476      3479      3478      3476      3479      3479      3482      3483
      3479      3482      3484      3479      3482      3485      3480      3479      3481
      3480      3479      3482      3481      3479      3482      3483      3482      3484
      3483      3482      3485      3484      3482      3485      3486      3489      3490
      3486      3489      3491      3486      3489      3492      3487      3486      3488
      3487      3486      3489      3488      3486      3489      3489      3492      3493
      3489      3492      3494      3489      3492      3495      3490      3489      3491
      3490      3489      3492      3491      3489      3492      3492      3495      3496
      3492      3495      3497      3492      3495      3498      3493      3492      3494
      3493      3492      3495      3494      3492      3495      3495      3498      3499
      3495      3498      3500      3495      3498      3501      3496      3495      3497
      3496      3495      3498      3497      3495      3498      3498      3501      3502
      3498      3501      3503      3498      3501      3504      3499      3498      3500
      3499      3498      3501      3500      3498      3501      3501      3504      3505
      3501      3504      3506      3502      3501      3503      3502      3501      3504
      3503      3501      3504      3504      3506      3507      3504      3506      3508
      3505      3504      3506      3506      3508      3509      3506      3508      3510
      3506      3508      3511      3507      3506      3508      3508      3511      3512
      3508      3511      3513      3508      3511      3514      3509      3508      3510
      3509      3508      3511      3510      3508      3511      3511      3514      3515
      3511      3514      3516      3511      3514      3517      3512      3511      3513
      3512      3511      3514      3513      3511      3514      3514      3517      3518
      3514      3517      3519      3514      3517      3520      3515      3514      3516
      3515      3514      3517      3516      3514      3517      3517      3520      3521
      3517      3520      3522      3517      3520      3523      3518      3517      3519
      3518      3517      3520      3519      3517      3520      3520      3523      3524
      3520      3523      3525      3520      3523      3526      3521      3520      3522
      3521      3520      3523      3522      3520      3523      3523      3526      3527
      3523      3526      3528      3523      3526      3529      3524      3523      3525
      3524      3523      3526      3525      3523      3526      3526      3529      3530
      3526      3529      3531      3526      3529      3532      3527      3526      3528
      3527      3526      3529      3528      3526      3529      3530      3529      3531
      3530      3529      3532      3531      3529      3532      3533      3535      3536
      3533      3537      3538      3533      3537      3539      3533      3537      3540
      3533      3579      3576      3533      3579      3580      3533      3579      3581
      3534      3533      3535      3534      3533      3537      3534      3533      3579
      3535      3533      3537      3535      3533      3579      3537      3533      3579
      3537      3540      3541      3537      3540      3571      3538      3537      3539
      3538      3537      3540      3539      3537      3540      3540      3541      3542
      3540      3541      3543      3540      3571      3569      3540      3571      3572
      3540      3571      3576      3541      3540      3571      3541      3543      3544
      3541      3543      3545      3541      3543      3546      3542      3541      3543
      3543      3546      3547      3543      3546      3548      3543      3546      3569
      3544      3543      3545      3544      3543      3546      3545      3543      3546
      3546      3548      3549      3546      3548      3550      3546      3548      3558
      3546      3569      3566      3546      3569      3570      3546      3569      3571
      3547      3546      3548      3547      3546      3569      3548      3546      3569
      3548      3550      3551      3548      3550      3552      3548      3550      3553
      3548      3558      3556      3548      3558      3559      3548      3558      3563
      3549      3548      3550      3549      3548      3558      3550      3548      3558
      3550      3553      3554      3550      3553      3555      3550      3553      3556
      3551      3550      3552      3551      3550      3553      3552      3550      3553
      3553      3556      3557      3553      3556      3558      3553      3556      3582
      3554      3553      3555      3554      3553      3556      3555      3553      3556
      3556      3558      3559      3556      3558      3563      3556      3582      3583
      3556      3582      3584      3556      3582      3588      3557      3556      3558
      3557      3556      3582      3558      3556      3582      3558      3559      3560
      3558      3559      3561      3558      3559      3562      3558      3563      3564
      3558      3563      3565      3558      3563      3566      3559      3558      3563
      3560      3559      3561      3560      3559      3562      3561      3559      3562
      3563      3566      3567      3563      3566      3568      3563      3566      3569
      3564      3563      3565      3564      3563      3566      3565      3563      3566
      3566      3569      3570      3566      3569      3571      3567      3566      3568
      3567      3566      3569      3568      3566      3569      3569      3571      3572
      3569      3571      3576      3570      3569      3571      3571      3572      3573
      3571      3572      3574      3571      3572      3575      3571      3576      3577
      3571      3576      3578      3571      3576      3579      3572      3571      3576
      3573      3572      3574      3573      3572      3575      3574      3572      3575
      3576      3579      3580      3576      3579      3581      3577      3576      3578
      3577      3576      3579      3578      3576      3579      3580      3579      3581
      3582      3584      3585      3582      3584      3586      3582      3584      3587
      3582      3588      3589      3582      3588      3590      3582      3588      3591
      3583      3582      3584      3583      3582      3588      3584      3582      3588
      3585      3584      3586      3585      3584      3587      3586      3584      3587
      3588      3591      3592      3588      3591      3593      3588      3591      3594
      3589      3588      3590      3589      3588      3591      3590      3588      3591
      3591      3594      3595      3591      3594      3596      3591      3594      3597
      3592      3591      3593      3592      3591      3594      3593      3591      3594
      3594      3597      3598      3594      3597      3599      3594      3597      3603
      3595      3594      3596      3595      3594      3597      3596      3594      3597
      3597      3599      3600      3597      3599      3601      3597      3599      3602
      3597      3603      3604      3597      3603      3605      3597      3603      3606
      3598      3597      3599      3598      3597      3603      3599      3597      3603
      3600      3599      3601      3600      3599      3602      3601      3599      3602
      3604      3603      3605      3604      3603      3606      3605      3603      3606
      3607      3609      3610      3607      3611      3612      3607      3611      3613
      3607      3611      3614      3607      3653      3650      3607      3653      3654
      3607      3653      3655      3608      3607      3609      3608      3607      3611
      3608      3607      3653      3609      3607      3611      3609      3607      3653
      3611      3607      3653      3611      3614      3615      3611      3614      3645
      3612      3611      3613      3612      3611      3614      3613      3611      3614
      3614      3615      3616      3614      3615      3617      3614      3645      3643
      3614      3645      3646      3614      3645      3650      3615      3614      3645
      3615      3617      3618      3615      3617      3619      3615      3617      3620
      3616      3615      3617      3617      3620      3621      3617      3620      3622
      3617      3620      3643      3618      3617      3619      3618      3617      3620
      3619      3617      3620      3620      3622      3623      3620      3622      3624
      3620      3622      3632      3620      3643      3640      3620      3643      3644
      3620      3643      3645      3621      3620      3622      3621      3620      3643
      3622      3620      3643      3622      3624      3625      3622      3624      3626
      3622      3624      3627      3622      3632      3630      3622      3632      3633
      3622      3632      3637      3623      3622      3624      3623      3622      3632
      3624      3622      3632      3624      3627      3628      3624      3627      3629
      3624      3627      3630      3625      3624      3626      3625      3624      3627
      3626      3624      3627      3627      3630      3631      3627      3630      3632
      3627      3630      3656      3628      3627      3629      3628      3627      3630
      3629      3627      3630      3630      3632      3633      3630      3632      3637
      3630      3656      3657      3630      3656      3658      3630      3656      3662
      3631      3630      3632      3631      3630      3656      3632      3630      3656
      3632      3633      3634      3632      3633      3635      3632      3633      3636
      3632      3637      3638      3632      3637      3639      3632      3637      3640
      3633      3632      3637      3634      3633      3635      3634      3633      3636
      3635      3633      3636      3637      3640      3641      3637      3640      3642
      3637      3640      3643      3638      3637      3639      3638      3637      3640
      3639      3637      3640      3640      3643      3644      3640      3643      3645
      3641      3640      3642      3641      3640      3643      3642      3640      3643
      3643      3645      3646      3643      3645      3650      3644      3643      3645
      3645      3646      3647      3645      3646      3648      3645      3646      3649
      3645      3650      3651      3645      3650      3652      3645      3650      3653
      3646      3645      3650      3647      3646      3648      3647      3646      3649
      3648      3646      3649      3650      3653      3654      3650      3653      3655
      3651      3650      3652      3651      3650      3653      3652      3650      3653
      3654      3653      3655      3656      3658      3659      3656      3658      3660
      3656      3658      3661      3656      3662      3663      3656      3662      3664
      3656      3662      3665      3657      3656      3658      3657      3656      3662
      3658      3656      3662      3659      3658      3660      3659      3658      3661
      3660      3658      3661      3662      3665      3666      3662      3665      3667
      3662      3665      3668      3663      3662      3664      3663      3662      3665
      3664      3662      3665      3665      3668      3669      3665      3668      3670
      3665      3668      3671      3666      3665      3667      3666      3665      3668
      3667      3665      3668      3668      3671      3672      3668      3671      3673
      3668      3671      3677      3669      3668      3670      3669      3668      3671
      3670      3668      3671      3671      3673      3674      3671      3673      3675
      3671      3673      3676      3671      3677      3678      3671      3677      3679
      3671      3677      3680      3672      3671      3673      3672      3671      3677
      3673      3671      3677      3674      3673      3675      3674      3673      3676
      3675      3673      3676      3678      3677      3679      3678      3677      3680
      3679      3677      3680      3681      3682      3683      3681      3682      3684
      3681      3682      3685      3681      3686      3687      3681      3686      3688
      3681      3686      3689      3681      3690      3691      3681      3690      3692
      3681      3690      3693      3681      3694      3695      3681      3694      3696
      3681      3694      3697      3682      3681      3686      3682      3681      3690
      3682      3681      3694      3683      3682      3684      3683      3682      3685
      3684      3682      3685      3686      3681      3690      3686      3681      3694
      3687      3686      3688      3687      3686      3689      3688      3686      3689
      3690      3681      3694      3691      3690      3692      3691      3690      3693
      3692      3690      3693      3694      3697      3698      3694      3697      3699
      3694      3697      3704      3695      3694      3696      3695      3694      3697
      3696      3694      3697      3697      3704      3700      3698      3697      3699
      3698      3697      3704      3699      3697      3704      3700      3703      3705
      3701      3700      3702      3701      3700      3703      3701      3700      3704
      3702      3700      3703      3702      3700      3704      3703      3700      3704
      3703      3705      3706      3703      3705      3707      3703      3705      3710
      3705      3710      3708      3705      3710      3711      3705      3710      3712
      3706      3705      3707      3706      3705      3710      3707      3705      3710
      3708      3710      3711      3708      3710      3712      3708      3760      3761
      3708      3760      3762      3709      3708      3710      3709      3708      3760
      3710      3708      3760      3710      3712      3713      3710      3712      3714
      3710      3712      3716      3711      3710      3712      3712      3714      3715
      3712      3716      3717      3712      3716      3718      3713      3712      3714
      3713      3712      3716      3714      3712      3716      3716      3718      3719
      3716      3718      3720      3717      3716      3718      3718      3720      3721
      3718      3720      3722      3718      3720      3723      3719      3718      3720
      3720      3723      3724      3720      3723      3725      3720      3723      3726
      3721      3720      3722      3721      3720      3723      3722      3720      3723
      3723      3726      3727      3723      3726      3728      3723      3726      3729
      3724      3723      3725      3724      3723      3726      3725      3723      3726
      3726      3729      3730      3726      3729      3731      3726      3729      3732
      3727      3726      3728      3727      3726      3729      3728      3726      3729
      3729      3732      3733      3729      3732      3734      3729      3732      3735
      3730      3729      3731      3730      3729      3732      3731      3729      3732
      3732      3735      3736      3732      3735      3737      3732      3735      3738
      3733      3732      3734      3733      3732      3735      3734      3732      3735
      3735      3738      3739      3735      3738      3740      3735      3738      3741
      3736      3735      3737      3736      3735      3738      3737      3735      3738
      3738      3741      3742      3738      3741      3743      3738      3741      3744
      3739      3738      3740      3739      3738      3741      3740      3738      3741
      3741      3744      3745      3741      3744      3746      3741      3744      3747
      3742      3741      3743      3742      3741      3744      3743      3741      3744
      3744      3747      3748      3744      3747      3749      3744      3747      3750
      3745      3744      3746      3745      3744      3747      3746      3744      3747
      3747      3750      3751      3747      3750      3752      3747      3750      3753
      3748      3747      3749      3748      3747      3750      3749      3747      3750
      3750      3753      3754      3750      3753      3755      3750      3753      3756
      3751      3750      3752      3751      3750      3753      3752      3750      3753
      3753      3756      3757      3753      3756      3758      3753      3756      3759
      3754      3753      3755      3754      3753      3756      3755      3753      3756
      3757      3756      3758      3757      3756      3759      3758      3756      3759
      3760      3762      3763      3760      3762      3764      3760      3762      3765
      3761      3760      3762      3762      3765      3766      3762      3765      3767
      3762      3765      3768      3763      3762      3764      3763      3762      3765
      3764      3762      3765      3765      3768      3769      3765      3768      3770
      3765      3768      3771      3766      3765      3767      3766      3765      3768
      3767      3765      3768      3768      3771      3772      3768      3771      3773
      3768      3771      3774      3769      3768      3770      3769      3768      3771
      3770      3768      3771      3771      3774      3775      3771      3774      3776
      3771      3774      3777      3772      3771      3773      3772      3771      3774
      3773      3771      3774      3774      3777      3778      3774      3777      3779
      3774      3777      3780      3775      3774      3776      3775      3774      3777
      3776      3774      3777      3777      3780      3781      3777      3780      3782
      3777      3780      3783      3778      3777      3779      3778      3777      3780
      3779      3777      3780      3780      3783      3784      3780      3783      3785
      3780      3783      3786      3781      3780      3782      3781      3780      3783
      3782      3780      3783      3783      3786      3787      3783      3786      3788
      3783      3786      3789      3784      3783      3785      3784      3783      3786
      3785      3783      3786      3786      3789      3790      3786      3789      3791
      3786      3789      3792      3787      3786      3788      3787      3786      3789
      3788      3786      3789      3789      3792      3793      3789      3792      3794
      3789      3792      3795      3790      3789      3791      3790      3789      3792
      3791      3789      3792      3792      3795      3796      3792      3795      3797
      3792      3795      3798      3793      3792      3794      3793      3792      3795
      3794      3792      3795      3795      3798      3799      3795      3798      3800
      3795      3798      3801      3796      3795      3797      3796      3795      3798
      3797      3795      3798      3798      3801      3802      3798      3801      3803
      3798      3801      3804      3799      3798      3800      3799      3798      3801
      3800      3798      3801      3801      3804      3805      3801      3804      3806
      3801      3804      3807      3802      3801      3803      3802      3801      3804
      3803      3801      3804      3804      3807      3808      3804      3807      3809
      3804      3807      3810      3805      3804      3806      3805      3804      3807
      3806      3804      3807      3807      3810      3811      3807      3810      3812
      3807      3810      3813      3808      3807      3809      3808      3807      3810
      3809      3807      3810      3810      3813      3814      3810      3813      3815
      3810      3813      3816      3811      3810      3812      3811      3810      3813
      3812      3810      3813      3813      3816      3817      3813      3816      3818
      3813      3816      3819      3814      3813      3815      3814      3813      3816
      3815      3813      3816      3816      3819      3820      3816      3819      3821
      3816      3819      3822      3817      3816      3818      3817      3816      3819
      3818      3816      3819      3819      3822      3823      3819      3822      3824
      3819      3822      3825      3820      3819      3821      3820      3819      3822
      3821      3819      3822      3822      3825      3826      3822      3825      3827
      3822      3825      3828      3823      3822      3824      3823      3822      3825
      3824      3822      3825      3826      3825      3827      3826      3825      3828
      3827      3825      3828      3829      3830      3831      3829      3830      3832
      3829      3830      3833      3829      3834      3835      3829      3834      3836
      3829      3834      3837      3829      3838      3839      3829      3838      3840
      3829      3838      3841      3829      3842      3843      3829      3842      3844
      3829      3842      3845      3830      3829      3834      3830      3829      3838
      3830      3829      3842      3831      3830      3832      3831      3830      3833
      3832      3830      3833      3834      3829      3838      3834      3829      3842
      3835      3834      3836      3835      3834      3837      3836      3834      3837
      3838      3829      3842      3839      3838      3840      3839      3838      3841
      3840      3838      3841      3842      3845      3846      3842      3845      3847
      3842      3845      3852      3843      3842      3844      3843      3842      3845
      3844      3842      3845      3845      3852      3848      3846      3845      3847
      3846      3845      3852      3847      3845      3852      3848      3851      3853
      3849      3848      3850      3849      3848      3851      3849      3848      3852
      3850      3848      3851      3850      3848      3852      3851      3848      3852
      3851      3853      3854      3851      3853      3855      3851      3853      3858
      3853      3858      3856      3853      3858      3859      3853      3858      3860
      3854      3853      3855      3854      3853      3858      3855      3853      3858
      3856      3858      3859      3856      3858      3860      3856      3908      3909
      3856      3908      3910      3857      3856      3858      3857      3856      3908
      3858      3856      3908      3858      3860      3861      3858      3860      3862
      3858      3860      3864      3859      3858      3860      3860      3862      3863
      3860      3864      3865      3860      3864      3866      3861      3860      3862
      3861      3860      3864      3862      3860      3864      3864      3866      3867
      3864      3866      3868      3865      3864      3866      3866      3868      3869
      3866      3868      3870      3866      3868      3871      3867      3866      3868
      3868      3871      3872      3868      3871      3873      3868      3871      3874
      3869      3868      3870      3869      3868      3871      3870      3868      3871
      3871      3874      3875      3871      3874      3876      3871      3874      3877
      3872      3871      3873      3872      3871      3874      3873      3871      3874
      3874      3877      3878      3874      3877      3879      3874      3877      3880
      3875      3874      3876      3875      3874      3877      3876      3874      3877
      3877      3880      3881      3877      3880      3882      3877      3880      3883
      3878      3877      3879      3878      3877      3880      3879      3877      3880
      3880      3883      3884      3880      3883      3885      3880      3883      3886
      3881      3880      3882      3881      3880      3883      3882      3880      3883
      3883      3886      3887      3883      3886      3888      3883      3886      3889
      3884      3883      3885      3884      3883      3886      3885      3883      3886
      3886      3889      3890      3886      3889      3891      3886      3889      3892
      3887      3886      3888      3887      3886      3889      3888      3886      3889
      3889      3892      3893      3889      3892      3894      3889      3892      3895
      3890      3889      3891      3890      3889      3892      3891      3889      3892
      3892      3895      3896      3892      3895      3897      3892      3895      3898
      3893      3892      3894      3893      3892      3895      3894      3892      3895
      3895      3898      3899      3895      3898      3900      3895      3898      3901
      3896      3895      3897      3896      3895      3898      3897      3895      3898
      3898      3901      3902      3898      3901      3903      3898      3901      3904
      3899      3898      3900      3899      3898      3901      3900      3898      3901
      3901      3904      3905      3901      3904      3906      3901      3904      3907
      3902      3901      3903      3902      3901      3904      3903      3901      3904
      3905      3904      3906      3905      3904      3907      3906      3904      3907
      3908      3910      3911      3908      3910      3912      3908      3910      3913
      3909      3908      3910      3910      3913      3914      3910      3913      3915
      3910      3913      3916      3911      3910      3912      3911      3910      3913
      3912      3910      3913      3913      3916      3917      3913      3916      3918
      3913      3916      3919      3914      3913      3915      3914      3913      3916
      3915      3913      3916      3916      3919      3920      3916      3919      3921
      3916      3919      3922      3917      3916      3918      3917      3916      3919
      3918      3916      3919      3919      3922      3923      3919      3922      3924
      3919      3922      3925      3920      3919      3921      3920      3919      3922
      3921      3919      3922      3922      3925      3926      3922      3925      3927
      3922      3925      3928      3923      3922      3924      3923      3922      3925
      3924      3922      3925      3925      3928      3929      3925      3928      3930
      3925      3928      3931      3926      3925      3927      3926      3925      3928
      3927      3925      3928      3928      3931      3932      3928      3931      3933
      3928      3931      3934      3929      3928      3930      3929      3928      3931
      3930      3928      3931      3931      3934      3935      3931      3934      3936
      3931      3934      3937      3932      3931      3933      3932      3931      3934
      3933      3931      3934      3934      3937      3938      3934      3937      3939
      3934      3937      3940      3935      3934      3936      3935      3934      3937
      3936      3934      3937      3937      3940      3941      3937      3940      3942
      3937      3940      3943      3938      3937      3939      3938      3937      3940
      3939      3937      3940      3940      3943      3944      3940      3943      3945
      3940      3943      3946      3941      3940      3942      3941      3940      3943
      3942      3940      3943      3943      3946      3947      3943      3946      3948
      3943      3946      3949      3944      3943      3945      3944      3943      3946
      3945      3943      3946      3946      3949      3950      3946      3949      3951
      3946      3949      3952      3947      3946      3948      3947      3946      3949
      3948      3946      3949      3949      3952      3953      3949      3952      3954
      3949      3952      3955      3950      3949      3951      3950      3949      3952
      3951      3949      3952      3952      3955      3956      3952      3955      3957
      3952      3955      3958      3953      3952      3954      3953      3952      3955
      3954      3952      3955      3955      3958      3959      3955      3958      3960
      3955      3958      3961      3956      3955      3957      3956      3955      3958
      3957      3955      3958      3958      3961      3962      3958      3961      3963
      3958      3961      3964      3959      3958      3960      3959      3958      3961
      3960      3958      3961      3961      3964      3965      3961      3964      3966
      3961      3964      3967      3962      3961      3963      3962      3961      3964
      3963      3961      3964      3964      3967      3968      3964      3967      3969
      3964      3967      3970      3965      3964      3966      3965      3964      3967
      3966      3964      3967      3967      3970      3971      3967      3970      3972
      3967      3970      3973      3968      3967      3969      3968      3967      3970
      3969      3967      3970      3970      3973      3974      3970      3973      3975
      3970      3973      3976      3971      3970      3972      3971      3970      3973
      3972      3970      3973      3974      3973      3975      3974      3973      3976
      3975      3973      3976      3977      3979      3980      3977      3981      3982
      3977      3981      3983      3977      3981      3984      3977      4023      4020
      3977      4023      4024      3977      4023      4025      3978      3977      3979
      3978      3977      3981      3978      3977      4023      3979      3977      3981
      3979      3977      4023      3981      3977      4023      3981      3984      3985
      3981      3984      4015      3982      3981      3983      3982      3981      3984
      3983      3981      3984      3984      3985      3986      3984      3985      3987
      3984      4015      4013      3984      4015      4016      3984      4015      4020
      3985      3984      4015      3985      3987      3988      3985      3987      3989
      3985      3987      3990      3986      3985      3987      3987      3990      3991
      3987      3990      3992      3987      3990      4013      3988      3987      3989
      3988      3987      3990      3989      3987      3990      3990      3992      3993
      3990      3992      3994      3990      3992      4002      3990      4013      4010
      3990      4013      4014      3990      4013      4015      3991      3990      3992
      3991      3990      4013      3992      3990      4013      3992      3994      3995
      3992      3994      3996      3992      3994      3997      3992      4002      4000
      3992      4002      4003      3992      4002      4007      3993      3992      3994
      3993      3992      4002      3994      3992      4002      3994      3997      3998
      3994      3997      3999      3994      3997      4000      3995      3994      3996
      3995      3994      3997      3996      3994      3997      3997      4000      4001
      3997      4000      4002      3997      4000      4026      3998      3997      3999
      3998      3997      4000      3999      3997      4000      4000      4002      4003
      4000      4002      4007      4000      4026      4027      4000      4026      4028
      4000      4026      4032      4001      4000      4002      4001      4000      4026
      4002      4000      4026      4002      4003      4004      4002      4003      4005
      4002      4003      4006      4002      4007      4008      4002      4007      4009
      4002      4007      4010      4003      4002      4007      4004      4003      4005
      4004      4003      4006      4005      4003      4006      4007      4010      4011
      4007      4010      4012      4007      4010      4013      4008      4007      4009
      4008      4007      4010      4009      4007      4010      4010      4013      4014
      4010      4013      4015      4011      4010      4012      4011      4010      4013
      4012      4010      4013      4013      4015      4016      4013      4015      4020
      4014      4013      4015      4015      4016      4017      4015      4016      4018
      4015      4016      4019      4015      4020      4021      4015      4020      4022
      4015      4020      4023      4016      4015      4020      4017      4016      4018
      4017      4016      4019      4018      4016      4019      4020      4023      4024
      4020      4023      4025      4021      4020      4022      4021      4020      4023
      4022      4020      4023      4024      4023      4025      4026      4028      4029
      4026      4028      4030      4026      4028      4031      4026      4032      4033
      4026      4032      4034      4026      4032      4035      4027      4026      4028
      4027      4026      4032      4028      4026      4032      4029      4028      4030
      4029      4028      4031      4030      4028      4031      4032      4035      4036
      4032      4035      4037      4032      4035      4038      4033      4032      4034
      4033      4032      4035      4034      4032      4035      4035      4038      4039
      4035      4038      4040      4035      4038      4041      4036      4035      4037
      4036      4035      4038      4037      4035      4038      4038      4041      4042
      4038      4041      4043      4038      4041      4047      4039      4038      4040
      4039      4038      4041      4040      4038      4041      4041      4043      4044
      4041      4043      4045      4041      4043      4046      4041      4047      4048
      4041      4047      4049      4041      4047      4050      4042      4041      4043
      4042      4041      4047      4043      4041      4047      4044      4043      4045
      4044      4043      4046      4045      4043      4046      4048      4047      4049
      4048      4047      4050      4049      4047      4050      4051      4052      4053
      4051      4052      4054      4051      4052      4055      4051      4056      4057
      4051      4056      4058      4051      4056      4059      4051      4060      4061
      4051      4060      4062      4051      4060      4063      4051      4064      4065
      4051      4064      4066      4051      4064      4067      4052      4051      4056
      4052      4051      4060      4052      4051      4064      4053      4052      4054
      4053      4052      4055      4054      4052      4055      4056      4051      4060
      4056      4051      4064      4057      4056      4058      4057      4056      4059
      4058      4056      4059      4060      4051      4064      4061      4060      4062
      4061      4060      4063      4062      4060      4063      4064      4067      4068
      4064      4067      4069      4064      4067      4074      4065      4064      4066
      4065      4064      4067      4066      4064      4067      4067      4074      4070
      4068      4067      4069      4068      4067      4074      4069      4067      4074
      4070      4073      4075      4071      4070      4072      4071      4070      4073
      4071      4070      4074      4072      4070      4073      4072      4070      4074
      4073      4070      4074      4073      4075      4076      4073      4075      4077
      4073      4075      4080      4075      4080      4078      4075      4080      4081
      4075      4080      4082      4076      4075      4077      4076      4075      4080
      4077      4075      4080      4078      4080      4081      4078      4080      4082
      4078      4130      4131      4078      4130      4132      4079      4078      4080
      4079      4078      4130      4080      4078      4130      4080      4082      4083
      4080      4082      4084      4080      4082      4086      4081      4080      4082
      4082      4084      4085      4082      4086      4087      4082      4086      4088
      4083      4082      4084      4083      4082      4086      4084      4082      4086
      4086      4088      4089      4086      4088      4090      4087      4086      4088
      4088      4090      4091      4088      4090      4092      4088      4090      4093
      4089      4088      4090      4090      4093      4094      4090      4093      4095
      4090      4093      4096      4091      4090      4092      4091      4090      4093
      4092      4090      4093      4093      4096      4097      4093      4096      4098
      4093      4096      4099      4094      4093      4095      4094      4093      4096
      4095      4093      4096      4096      4099      4100      4096      4099      4101
      4096      4099      4102      4097      4096      4098      4097      4096      4099
      4098      4096      4099      4099      4102      4103      4099      4102      4104
      4099      4102      4105      4100      4099      4101      4100      4099      4102
      4101      4099      4102      4102      4105      4106      4102      4105      4107
      4102      4105      4108      4103      4102      4104      4103      4102      4105
      4104      4102      4105      4105      4108      4109      4105      4108      4110
      4105      4108      4111      4106      4105      4107      4106      4105      4108
      4107      4105      4108      4108      4111      4112      4108      4111      4113
      4108      4111      4114      4109      4108      4110      4109      4108      4111
      4110      4108      4111      4111      4114      4115      4111      4114      4116
      4111      4114      4117      4112      4111      4113      4112      4111      4114
      4113      4111      4114      4114      4117      4118      4114      4117      4119
      4114      4117      4120      4115      4114      4116      4115      4114      4117
      4116      4114      4117      4117      4120      4121      4117      4120      4122
      4117      4120      4123      4118      4117      4119      4118      4117      4120
      4119      4117      4120      4120      4123      4124      4120      4123      4125
      4120      4123      4126      4121      4120      4122      4121      4120      4123
      4122      4120      4123      4123      4126      4127      4123      4126      4128
      4123      4126      4129      4124      4123      4125      4124      4123      4126
      4125      4123      4126      4127      4126      4128      4127      4126      4129
      4128      4126      4129      4130      4132      4133      4130      4132      4134
      4130      4132      4135      4131      4130      4132      4132      4135      4136
      4132      4135      4137      4132      4135      4138      4133      4132      4134
      4133      4132      4135      4134      4132      4135      4135      4138      4139
      4135      4138      4140      4135      4138      4141      4136      4135      4137
      4136      4135      4138      4137      4135      4138      4138      4141      4142
      4138      4141      4143      4138      4141      4144      4139      4138      4140
      4139      4138      4141      4140      4138      4141      4141      4144      4145
      4141      4144      4146      4141      4144      4147      4142      4141      4143
      4142      4141      4144      4143      4141      4144      4144      4147      4148
      4144      4147      4149      4144      4147      4150      4145      4144      4146
      4145      4144      4147      4146      4144      4147      4147      4150      4151
      4147      4150      4152      4147      4150      4153      4148      4147      4149
      4148      4147      4150      4149      4147      4150      4150      4153      4154
      4150      4153      4155      4150      4153      4156      4151      4150      4152
      4151      4150      4153      4152      4150      4153      4153      4156      4157
      4153      4156      4158      4153      4156      4159      4154      4153      4155
      4154      4153      4156      4155      4153      4156      4156      4159      4160
      4156      4159      4161      4156      4159      4162      4157      4156      4158
      4157      4156      4159      4158      4156      4159      4159      4162      4163
      4159      4162      4164      4159      4162      4165      4160      4159      4161
      4160      4159      4162      4161      4159      4162      4162      4165      4166
      4162      4165      4167      4162      4165      4168      4163      4162      4164
      4163      4162      4165      4164      4162      4165      4165      4168      4169
      4165      4168      4170      4165      4168      4171      4166      4165      4167
      4166      4165      4168      4167      4165      4168      4168      4171      4172
      4168      4171      4173      4168      4171      4174      4169      4168      4170
      4169      4168      4171      4170      4168      4171      4171      4174      4175
      4171      4174      4176      4171      4174      4177      4172      4171      4173
      4172      4171      4174      4173      4171      4174      4174      4177      4178
      4174      4177      4179      4174      4177      4180      4175      4174      4176
      4175      4174      4177      4176      4174      4177      4177      4180      4181
      4177      4180      4182      4177      4180      4183      4178      4177      4179
      4178      4177      4180      4179      4177      4180      4180      4183      4184
      4180      4183      4185      4180      4183      4186      4181      4180      4182
      4181      4180      4183      4182      4180      4183      4183      4186      4187
      4183      4186      4188      4183      4186      4189      4184      4183      4185
      4184      4183      4186      4185      4183      4186      4186      4189      4190
      4186      4189      4191      4186      4189      4192      4187      4186      4188
      4187      4186      4189      4188      4186      4189      4189      4192      4193
      4189      4192      4194      4189      4192      4195      4190      4189      4191
      4190      4189      4192      4191      4189      4192      4192      4195      4196
      4192      4195      4197      4192      4195      4198      4193      4192      4194
      4193      4192      4195      4194      4192      4195      4196      4195      4197
      4196      4195      4198      4197      4195      4198      4199      4201      4202
      4199      4203      4204      4199      4203      4205      4199      4203      4206
      4199      4245      4242      4199      4245      4246      4199      4245      4247
      4200      4199      4201      4200      4199      4203      4200      4199      4245
      4201      4199      4203      4201      4199      4245      4203      4199      4245
      4203      4206      4207      4203      4206      4237      4204      4203      4205
      4204      4203      4206      4205      4203      4206      4206      4207      4208
      4206      4207      4209      4206      4237      4235      4206      4237      4238
      4206      4237      4242      4207      4206      4237      4207      4209      4210
      4207      4209      4211      4207      4209      4212      4208      4207      4209
      4209      4212      4213      4209      4212      4214      4209      4212      4235
      4210      4209      4211      4210      4209      4212      4211      4209      4212
      4212      4214      4215      4212      4214      4216      4212      4214      4224
      4212      4235      4232      4212      4235      4236      4212      4235      4237
      4213      4212      4214      4213      4212      4235      4214      4212      4235
      4214      4216      4217      4214      4216      4218      4214      4216      4219
      4214      4224      4222      4214      4224      4225      4214      4224      4229
      4215      4214      4216      4215      4214      4224      4216      4214      4224
      4216      4219      4220      4216      4219      4221      4216      4219      4222
      4217      4216      4218      4217      4216      4219      4218      4216      4219
      4219      4222      4223      4219      4222      4224      4219      4222      4248
      4220      4219      4221      4220      4219      4222      4221      4219      4222
      4222      4224      4225      4222      4224      4229      4222      4248      4249
      4222      4248      4250      4222      4248      4254      4223      4222      4224
      4223      4222      4248      4224      4222      4248      4224      4225      4226
      4224      4225      4227      4224      4225      4228      4224      4229      4230
      4224      4229      4231      4224      4229      4232      4225      4224      4229
      4226      4225      4227      4226      4225      4228      4227      4225      4228
      4229      4232      4233      4229      4232      4234      4229      4232      4235
      4230      4229      4231      4230      4229      4232      4231      4229      4232
      4232      4235      4236      4232      4235      4237      4233      4232      4234
      4233      4232      4235      4234      4232      4235      4235      4237      4238
      4235      4237      4242      4236      4235      4237      4237      4238      4239
      4237      4238      4240      4237      4238      4241      4237      4242      4243
      4237      4242      4244      4237      4242      4245      4238      4237      4242
      4239      4238      4240      4239      4238      4241      4240      4238      4241
      4242      4245      4246      4242      4245      4247      4243      4242      4244
      4243      4242      4245      4244      4242      4245      4246      4245      4247
      4248      4250      4251      4248      4250      4252      4248      4250      4253
      4248      4254      4255      4248      4254      4256      4248      4254      4257
      4249      4248      4250      4249      4248      4254      4250      4248      4254
      4251      4250      4252      4251      4250      4253      4252      4250      4253
      4254      4257      4258      4254      4257      4259      4254      4257      4260
      4255      4254      4256      4255      4254      4257      4256      4254      4257
      4257      4260      4261      4257      4260      4262      4257      4260      4263
      4258      4257      4259      4258      4257      4260      4259      4257      4260
      4260      4263      4264      4260      4263      4265      4260      4263      4269
      4261      4260      4262      4261      4260      4263      4262      4260      4263
      4263      4265      4266      4263      4265      4267      4263      4265      4268
      4263      4269      4270      4263      4269      4271      4263      4269      4272
      4264      4263      4265      4264      4263      4269      4265      4263      4269
      4266      4265      4267      4266      4265      4268      4267      4265      4268
      4270      4269      4271      4270      4269      4272      4271      4269      4272
      4273      4274      4275      4273      4274      4276      4273      4274      4289
      4273      4277      4278      4273      4277      4279      4273      4277      4280
      4273      4281      4282      4273      4281      4283      4273      4281      4284
      4273      4285      4286      4273      4285      4287      4273      4285      4288
      4274      4273      4277      4274      4273      4281      4274      4273      4285
      4274      4289      4290      4274      4289      4291      4274      4289      4295
      4275      4274      4276      4275      4274      4289      4276      4274      4289
      4277      4273      4281      4277      4273      4285      4278      4277      4279
      4278      4277      4280      4279      4277      4280      4281      4273      4285
      4282      4281      4283      4282      4281      4284      4283      4281      4284
      4286      4285      4287      4286      4285      4288      4287      4285      4288
      4289      4295      4292      4290      4289      4291      4290      4289      4295
      4291      4289      4295      4292      4296      4297      4293      4292      4294
      4293      4292      4295      4293      4292      4296      4294      4292      4295
      4294      4292      4296      4295      4292      4296      4296      4297      4298
      4296      4297      4299      4296      4297      4300      4297      4300      4301
      4297      4300      4302      4297      4300      4308      4298      4297      4299
      4298      4297      4300      4299      4297      4300      4300      4302      4303
      4300      4308      4309      4300      4308      4310      4300      4308      4311
      4301      4300      4302      4301      4300      4308      4302      4300      4308
      4302      4303      4304      4302      4303      4305      4303      4305      4306
      4303      4305      4307      4303      4305      4317      4304      4303      4305
      4305      4317      4318      4305      4317      4319      4305      4317      4320
      4306      4305      4307      4306      4305      4317      4307      4305      4317
      4308      4311      4312      4309      4308      4310      4309      4308      4311
      4310      4308      4311      4311      4312      4313      4311      4312      4314
      4312      4314      4315      4312      4314      4316      4312      4314      4364
      4313      4312      4314      4314      4364      4365      4314      4364      4366
      4314      4364      4367      4315      4314      4316      4315      4314      4364
      4316      4314      4364      4317      4320      4321      4317      4320      4322
      4317      4320      4323      4318      4317      4319      4318      4317      4320
      4319      4317      4320      4320      4323      4324      4320      4323      4325
      4320      4323      4326      4321      4320      4322      4321      4320      4323
      4322      4320      4323      4323      4326      4327      4323      4326      4328
      4323      4326      4329      4324      4323      4325      4324      4323      4326
      4325      4323      4326      4326      4329      4330      4326      4329      4331
      4326      4329      4332      4327      4326      4328      4327      4326      4329
      4328      4326      4329      4329      4332      4333      4329      4332      4334
      4329      4332      4335      4330      4329      4331      4330      4329      4332
      4331      4329      4332      4332      4335      4336      4332      4335      4337
      4333      4332      4334      4333      4332      4335      4334      4332      4335
      4335      4337      4338      4335      4337      4339      4336      4335      4337
      4337      4339      4340      4337      4339      4341      4337      4339      4342
      4338      4337      4339      4339      4342      4343      4339      4342      4344
      4339      4342      4345      4340      4339      4341      4340      4339      4342
      4341      4339      4342      4342      4345      4346      4342      4345      4347
      4342      4345      4348      4343      4342      4344      4343      4342      4345
      4344      4342      4345      4345      4348      4349      4345      4348      4350
      4345      4348      4351      4346      4345      4347      4346      4345      4348
      4347      4345      4348      4348      4351      4352      4348      4351      4353
      4348      4351      4354      4349      4348      4350      4349      4348      4351
      4350      4348      4351      4351      4354      4355      4351      4354      4356
      4351      4354      4357      4352      4351      4353      4352      4351      4354
      4353      4351      4354      4354      4357      4358      4354      4357      4359
      4354      4357      4360      4355      4354      4356      4355      4354      4357
      4356      4354      4357      4357      4360      4361      4357      4360      4362
      4357      4360      4363      4358      4357      4359      4358      4357      4360
      4359      4357      4360      4361      4360      4362      4361      4360      4363
      4362      4360      4363      4364      4367      4368      4364      4367      4369
      4364      4367      4370      4365      4364      4366      4365      4364      4367
      4366      4364      4367      4367      4370      4371      4367      4370      4372
      4367      4370      4373      4368      4367      4369      4368      4367      4370
      4369      4367      4370      4370      4373      4374      4370      4373      4375
      4370      4373      4376      4371      4370      4372      4371      4370      4373
      4372      4370      4373      4373      4376      4377      4373      4376      4378
      4373      4376      4379      4374      4373      4375      4374      4373      4376
      4375      4373      4376      4376      4379      4380      4376      4379      4381
      4376      4379      4382      4377      4376      4378      4377      4376      4379
      4378      4376      4379      4379      4382      4383      4379      4382      4384
      4380      4379      4381      4380      4379      4382      4381      4379      4382
      4382      4384      4385      4382      4384      4386      4383      4382      4384
      4384      4386      4387      4384      4386      4388      4384      4386      4389
      4385      4384      4386      4386      4389      4390      4386      4389      4391
      4386      4389      4392      4387      4386      4388      4387      4386      4389
      4388      4386      4389      4389      4392      4393      4389      4392      4394
      4389      4392      4395      4390      4389      4391      4390      4389      4392
      4391      4389      4392      4392      4395      4396      4392      4395      4397
      4392      4395      4398      4393      4392      4394      4393      4392      4395
      4394      4392      4395      4395      4398      4399      4395      4398      4400
      4395      4398      4401      4396      4395      4397      4396      4395      4398
      4397      4395      4398      4398      4401      4402      4398      4401      4403
      4398      4401      4404      4399      4398      4400      4399      4398      4401
      4400      4398      4401      4401      4404      4405      4401      4404      4406
      4401      4404      4407      4402      4401      4403      4402      4401      4404
      4403      4401      4404      4404      4407      4408      4404      4407      4409
      4404      4407      4410      4405      4404      4406      4405      4404      4407
      4406      4404      4407      4408      4407      4409      4408      4407      4410
      4409      4407      4410      4411      4413      4414      4411      4415      4416
      4411      4415      4417      4411      4415      4418      4411      4457      4454
      4411      4457      4458      4411      4457      4459      4412      4411      4413
      4412      4411      4415      4412      4411      4457      4413      4411      4415
      4413      4411      4457      4415      4411      4457      4415      4418      4419
      4415      4418      4449      4416      4415      4417      4416      4415      4418
      4417      4415      4418      4418      4419      4420      4418      4419      4421
      4418      4449      4447      4418      4449      4450      4418      4449      4454
      4419      4418      4449      4419      4421      4422      4419      4421      4423
      4419      4421      4424      4420      4419      4421      4421      4424      4425
      4421      4424      4426      4421      4424      4447      4422      4421      4423
      4422      4421      4424      4423      4421      4424      4424      4426      4427
      4424      4426      4428      4424      4426      4436      4424      4447      4444
      4424      4447      4448      4424      4447      4449      4425      4424      4426
      4425      4424      4447      4426      4424      4447      4426      4428      4429
      4426      4428      4430      4426      4428      4431      4426      4436      4434
      4426      4436      4437      4426      4436      4441      4427      4426      4428
      4427      4426      4436      4428      4426      4436      4428      4431      4432
      4428      4431      4433      4428      4431      4434      4429      4428      4430
      4429      4428      4431      4430      4428      4431      4431      4434      4435
      4431      4434      4436      4431      4434      4460      4432      4431      4433
      4432      4431      4434      4433      4431      4434      4434      4436      4437
      4434      4436      4441      4434      4460      4461      4434      4460      4462
      4434      4460      4466      4435      4434      4436      4435      4434      4460
      4436      4434      4460      4436      4437      4438      4436      4437      4439
      4436      4437      4440      4436      4441      4442      4436      4441      4443
      4436      4441      4444      4437      4436      4441      4438      4437      4439
      4438      4437      4440      4439      4437      4440      4441      4444      4445
      4441      4444      4446      4441      4444      4447      4442      4441      4443
      4442      4441      4444      4443      4441      4444      4444      4447      4448
      4444      4447      4449      4445      4444      4446      4445      4444      4447
      4446      4444      4447      4447      4449      4450      4447      4449      4454
      4448      4447      4449      4449      4450      4451      4449      4450      4452
      4449      4450      4453      4449      4454      4455      4449      4454      4456
      4449      4454      4457      4450      4449      4454      4451      4450      4452
      4451      4450      4453      4452      4450      4453      4454      4457      4458
      4454      4457      4459      4455      4454      4456      4455      4454      4457
      4456      4454      4457      4458      4457      4459      4460      4462      4463
      4460      4462      4464      4460      4462      4465      4460      4466      4467
      4460      4466      4468      4460      4466      4469      4461      4460      4462
      4461      4460      4466      4462      4460      4466      4463      4462      4464
      4463      4462      4465      4464      4462      4465      4466      4469      4470
      4466      4469      4471      4466      4469      4472      4467      4466      4468
      4467      4466      4469      4468      4466      4469      4469      4472      4473
      4469      4472      4474      4469      4472      4475      4470      4469      4471
      4470      4469      4472      4471      4469      4472      4472      4475      4476
      4472      4475      4477      4472      4475      4481      4473      4472      4474
      4473      4472      4475      4474      4472      4475      4475      4477      4478
      4475      4477      4479      4475      4477      4480      4475      4481      4482
      4475      4481      4483      4475      4481      4484      4476      4475      4477
      4476      4475      4481      4477      4475      4481      4478      4477      4479
      4478      4477      4480      4479      4477      4480      4482      4481      4483
      4482      4481      4484      4483      4481      4484      4485      4486      4487
      4485      4486      4488      4485      4486      4501      4485      4489      4490
      4485      4489      4491      4485      4489      4492      4485      4493      4494
      4485      4493      4495      4485      4493      4496      4485      4497      4498
      4485      4497      4499      4485      4497      4500      4486      4485      4489
      4486      4485      4493      4486      4485      4497      4486      4501      4502
      4486      4501      4503      4486      4501      4507      4487      4486      4488
      4487      4486      4501      4488      4486      4501      4489      4485      4493
      4489      4485      4497      4490      4489      4491      4490      4489      4492
      4491      4489      4492      4493      4485      4497      4494      4493      4495
      4494      4493      4496      4495      4493      4496      4498      4497      4499
      4498      4497      4500      4499      4497      4500      4501      4507      4504
      4502      4501      4503      4502      4501      4507      4503      4501      4507
      4504      4508      4509      4505      4504      4506      4505      4504      4507
      4505      4504      4508      4506      4504      4507      4506      4504      4508
      4507      4504      4508      4508      4509      4510      4508      4509      4511
      4508      4509      4512      4509      4512      4513      4509      4512      4514
      4509      4512      4520      4510      4509      4511      4510      4509      4512
      4511      4509      4512      4512      4514      4515      4512      4520      4521
      4512      4520      4522      4512      4520      4523      4513      4512      4514
      4513      4512      4520      4514      4512      4520      4514      4515      4516
      4514      4515      4517      4515      4517      4518      4515      4517      4519
      4515      4517      4529      4516      4515      4517      4517      4529      4530
      4517      4529      4531      4517      4529      4532      4518      4517      4519
      4518      4517      4529      4519      4517      4529      4520      4523      4524
      4521      4520      4522      4521      4520      4523      4522      4520      4523
      4523      4524      4525      4523      4524      4526      4524      4526      4527
      4524      4526      4528      4524      4526      4576      4525      4524      4526
      4526      4576      4577      4526      4576      4578      4526      4576      4579
      4527      4526      4528      4527      4526      4576      4528      4526      4576
      4529      4532      4533      4529      4532      4534      4529      4532      4535
      4530      4529      4531      4530      4529      4532      4531      4529      4532
      4532      4535      4536      4532      4535      4537      4532      4535      4538
      4533      4532      4534      4533      4532      4535      4534      4532      4535
      4535      4538      4539      4535      4538      4540      4535      4538      4541
      4536      4535      4537      4536      4535      4538      4537      4535      4538
      4538      4541      4542      4538      4541      4543      4538      4541      4544
      4539      4538      4540      4539      4538      4541      4540      4538      4541
      4541      4544      4545      4541      4544      4546      4541      4544      4547
      4542      4541      4543      4542      4541      4544      4543      4541      4544
      4544      4547      4548      4544      4547      4549      4545      4544      4546
      4545      4544      4547      4546      4544      4547      4547      4549      4550
      4547      4549      4551      4548      4547      4549      4549      4551      4552
      4549      4551      4553      4549      4551      4554      4550      4549      4551
      4551      4554      4555      4551      4554      4556      4551      4554      4557
      4552      4551      4553      4552      4551      4554      4553      4551      4554
      4554      4557      4558      4554      4557      4559      4554      4557      4560
      4555      4554      4556      4555      4554      4557      4556      4554      4557
      4557      4560      4561      4557      4560      4562      4557      4560      4563
      4558      4557      4559      4558      4557      4560      4559      4557      4560
      4560      4563      4564      4560      4563      4565      4560      4563      4566
      4561      4560      4562      4561      4560      4563      4562      4560      4563
      4563      4566      4567      4563      4566      4568      4563      4566      4569
      4564      4563      4565      4564      4563      4566      4565      4563      4566
      4566      4569      4570      4566      4569      4571      4566      4569      4572
      4567      4566      4568      4567      4566      4569      4568      4566      4569
      4569      4572      4573      4569      4572      4574      4569      4572      4575
      4570      4569      4571      4570      4569      4572      4571      4569      4572
      4573      4572      4574      4573      4572      4575      4574      4572      4575
      4576      4579      4580      4576      4579      4581      4576      4579      4582
      4577      4576      4578      4577      4576      4579      4578      4576      4579
      4579      4582      4583      4579      4582      4584      4579      4582      4585
      4580      4579      4581      4580      4579      4582      4581      4579      4582
      4582      4585      4586      4582      4585      4587      4582      4585      4588
      4583      4582      4584      4583      4582      4585      4584      4582      4585
      4585      4588      4589      4585      4588      4590      4585      4588      4591
      4586      4585      4587      4586      4585      4588      4587      4585      4588
      4588      4591      4592      4588      4591      4593      4588      4591      4594
      4589      4588      4590      4589      4588      4591      4590      4588      4591
      4591      4594      4595      4591      4594      4596      4592      4591      4593
      4592      4591      4594      4593      4591      4594      4594      4596      4597
      4594      4596      4598      4595      4594      4596      4596      4598      4599
      4596      4598      4600      4596      4598      4601      4597      4596      4598
      4598      4601      4602      4598      4601      4603      4598      4601      4604
      4599      4598      4600      4599      4598      4601      4600      4598      4601
      4601      4604      4605      4601      4604      4606      4601      4604      4607
      4602      4601      4603      4602      4601      4604      4603      4601      4604
      4604      4607      4608      4604      4607      4609      4604      4607      4610
      4605      4604      4606      4605      4604      4607      4606      4604      4607
      4607      4610      4611      4607      4610      4612      4607      4610      4613
      4608      4607      4609      4608      4607      4610      4609      4607      4610
      4610      4613      4614      4610      4613      4615      4610      4613      4616
      4611      4610      4612      4611      4610      4613      4612      4610      4613
      4613      4616      4617      4613      4616      4618      4613      4616      4619
      4614      4613      4615      4614      4613      4616      4615      4613      4616
      4616      4619      4620      4616      4619      4621      4616      4619      4622
      4617      4616      4618      4617      4616      4619      4618      4616      4619
      4620      4619      4621      4620      4619      4622      4621      4619      4622
      4623      4624      4625      4623      4624      4626      4623      4624      4639
      4623      4627      4628      4623      4627      4629      4623      4627      4630
      4623      4631      4632      4623      4631      4633      4623      4631      4634
      4623      4635      4636      4623      4635      4637      4623      4635      4638
      4624      4623      4627      4624      4623      4631      4624      4623      4635
      4624      4639      4640      4624      4639      4641      4624      4639      4645
      4625      4624      4626      4625      4624      4639      4626      4624      4639
      4627      4623      4631      4627      4623      4635      4628      4627      4629
      4628      4627      4630      4629      4627      4630      4631      4623      4635
      4632      4631      4633      4632      4631      4634      4633      4631      4634
      4636      4635      4637      4636      4635      4638      4637      4635      4638
      4639      4645      4642      4640      4639      4641      4640      4639      4645
      4641      4639      4645      4642      4646      4647      4643      4642      4644
      4643      4642      4645      4643      4642      4646      4644      4642      4645
      4644      4642      4646      4645      4642      4646      4646      4647      4648
      4646      4647      4649      4646      4647      4650      4647      4650      4651
      4647      4650      4652      4647      4650      4658      4648      4647      4649
      4648      4647      4650      4649      4647      4650      4650      4652      4653
      4650      4658      4659      4650      4658      4660      4650      4658      4661
      4651      4650      4652      4651      4650      4658      4652      4650      4658
      4652      4653      4654      4652      4653      4655      4653      4655      4656
      4653      4655      4657      4653      4655      4667      4654      4653      4655
      4655      4667      4668      4655      4667      4669      4655      4667      4670
      4656      4655      4657      4656      4655      4667      4657      4655      4667
      4658      4661      4662      4659      4658      4660      4659      4658      4661
      4660      4658      4661      4661      4662      4663      4661      4662      4664
      4662      4664      4665      4662      4664      4666      4662      4664      4714
      4663      4662      4664      4664      4714      4715      4664      4714      4716
      4664      4714      4717      4665      4664      4666      4665      4664      4714
      4666      4664      4714      4667      4670      4671      4667      4670      4672
      4667      4670      4673      4668      4667      4669      4668      4667      4670
      4669      4667      4670      4670      4673      4674      4670      4673      4675
      4670      4673      4676      4671      4670      4672      4671      4670      4673
      4672      4670      4673      4673      4676      4677      4673      4676      4678
      4673      4676      4679      4674      4673      4675      4674      4673      4676
      4675      4673      4676      4676      4679      4680      4676      4679      4681
      4676      4679      4682      4677      4676      4678      4677      4676      4679
      4678      4676      4679      4679      4682      4683      4679      4682      4684
      4679      4682      4685      4680      4679      4681      4680      4679      4682
      4681      4679      4682      4682      4685      4686      4682      4685      4687
      4683      4682      4684      4683      4682      4685      4684      4682      4685
      4685      4687      4688      4685      4687      4689      4686      4685      4687
      4687      4689      4690      4687      4689      4691      4687      4689      4692
      4688      4687      4689      4689      4692      4693      4689      4692      4694
      4689      4692      4695      4690      4689      4691      4690      4689      4692
      4691      4689      4692      4692      4695      4696      4692      4695      4697
      4692      4695      4698      4693      4692      4694      4693      4692      4695
      4694      4692      4695      4695      4698      4699      4695      4698      4700
      4695      4698      4701      4696      4695      4697      4696      4695      4698
      4697      4695      4698      4698      4701      4702      4698      4701      4703
      4698      4701      4704      4699      4698      4700      4699      4698      4701
      4700      4698      4701      4701      4704      4705      4701      4704      4706
      4701      4704      4707      4702      4701      4703      4702      4701      4704
      4703      4701      4704      4704      4707      4708      4704      4707      4709
      4704      4707      4710      4705      4704      4706      4705      4704      4707
      4706      4704      4707      4707      4710      4711      4707      4710      4712
      4707      4710      4713      4708      4707      4709      4708      4707      4710
      4709      4707      4710      4711      4710      4712      4711      4710      4713
      4712      4710      4713      4714      4717      4718      4714      4717      4719
      4714      4717      4720      4715      4714      4716      4715      4714      4717
      4716      4714      4717      4717      4720      4721      4717      4720      4722
      4717      4720      4723      4718      4717      4719      4718      4717      4720
      4719      4717      4720      4720      4723      4724      4720      4723      4725
      4720      4723      4726      4721      4720      4722      4721      4720      4723
      4722      4720      4723      4723      4726      4727      4723      4726      4728
      4723      4726      4729      4724      4723      4725      4724      4723      4726
      4725      4723      4726      4726      4729      4730      4726      4729      4731
      4726      4729      4732      4727      4726      4728      4727      4726      4729
      4728      4726      4729      4729      4732      4733      4729      4732      4734
      4730      4729      4731      4730      4729      4732      4731      4729      4732
      4732      4734      4735      4732      4734      4736      4733      4732      4734
      4734      4736      4737      4734      4736      4738      4734      4736      4739
      4735      4734      4736      4736      4739      4740      4736      4739      4741
      4736      4739      4742      4737      4736      4738      4737      4736      4739
      4738      4736      4739      4739      4742      4743      4739      4742      4744
      4739      4742      4745      4740      4739      4741      4740      4739      4742
      4741      4739      4742      4742      4745      4746      4742      4745      4747
      4742      4745      4748      4743      4742      4744      4743      4742      4745
      4744      4742      4745      4745      4748      4749      4745      4748      4750
      4745      4748      4751      4746      4745      4747      4746      4745      4748
      4747      4745      4748      4748      4751      4752      4748      4751      4753
      4748      4751      4754      4749      4748      4750      4749      4748      4751
      4750      4748      4751      4751      4754      4755      4751      4754      4756
      4751      4754      4757      4752      4751      4753      4752      4751      4754
      4753      4751      4754      4754      4757      4758      4754      4757      4759
      4754      4757      4760      4755      4754      4756      4755      4754      4757
      4756      4754      4757      4758      4757      4759      4758      4757      4760
      4759      4757      4760      4761      4765      4766      4761      4765      4767
      4761      4765      4768      4762      4761      4763      4762      4761      4764
      4762      4761      4765      4763      4761      4764      4763      4761      4765
      4764      4761      4765      4765      4768      4769      4765      4768      4770
      4765      4768      4775      4766      4765      4767      4766      4765      4768
      4767      4765      4768      4768      4775      4771      4769      4768      4770
      4769      4768      4775      4770      4768      4775      4771      4774      4776
      4772      4771      4773      4772      4771      4774      4772      4771      4775
      4773      4771      4774      4773      4771      4775      4774      4771      4775
      4774      4776      4777      4774      4776      4778      4774      4776      4779
      4776      4779      4780      4776      4779      4781      4776      4779      4787
      4777      4776      4778      4777      4776      4779      4778      4776      4779
      4779      4781      4782      4779      4787      4788      4779      4787      4789
      4779      4787      4790      4780      4779      4781      4780      4779      4787
      4781      4779      4787      4781      4782      4783      4781      4782      4784
      4782      4784      4785      4782      4784      4786      4782      4784      4796
      4783      4782      4784      4784      4796      4797      4784      4796      4798
      4784      4796      4799      4785      4784      4786      4785      4784      4796
      4786      4784      4796      4787      4790      4791      4788      4787      4789
      4788      4787      4790      4789      4787      4790      4790      4791      4792
      4790      4791      4793      4791      4793      4794      4791      4793      4795
      4791      4793      4843      4792      4791      4793      4793      4843      4844
      4793      4843      4845      4793      4843      4846      4794      4793      4795
      4794      4793      4843      4795      4793      4843      4796      4799      4800
      4796      4799      4801      4796      4799      4802      4797      4796      4798
      4797      4796      4799      4798      4796      4799      4799      4802      4803
      4799      4802      4804      4799      4802      4805      4800      4799      4801
      4800      4799      4802      4801      4799      4802      4802      4805      4806
      4802      4805      4807      4802      4805      4808      4803      4802      4804
      4803      4802      4805      4804      4802      4805      4805      4808      4809
      4805      4808      4810      4805      4808      4811      4806      4805      4807
      4806      4805      4808      4807      4805      4808      4808      4811      4812
      4808      4811      4813      4808      4811      4814      4809      4808      4810
      4809      4808      4811      4810      4808      4811      4811      4814      4815
      4811      4814      4816      4812      4811      4813      4812      4811      4814
      4813      4811      4814      4814      4816      4817      4814      4816      4818
      4815      4814      4816      4816      4818      4819      4816      4818      4820
      4816      4818      4821      4817      4816      4818      4818      4821      4822
      4818      4821      4823      4818      4821      4824      4819      4818      4820
      4819      4818      4821      4820      4818      4821      4821      4824      4825
      4821      4824      4826      4821      4824      4827      4822      4821      4823
      4822      4821      4824      4823      4821      4824      4824      4827      4828
      4824      4827      4829      4824      4827      4830      4825      4824      4826
      4825      4824      4827      4826      4824      4827      4827      4830      4831
      4827      4830      4832      4827      4830      4833      4828      4827      4829
      4828      4827      4830      4829      4827      4830      4830      4833      4834
      4830      4833      4835      4830      4833      4836      4831      4830      4832
      4831      4830      4833      4832      4830      4833      4833      4836      4837
      4833      4836      4838      4833      4836      4839      4834      4833      4835
      4834      4833      4836      4835      4833      4836      4836      4839      4840
      4836      4839      4841      4836      4839      4842      4837      4836      4838
      4837      4836      4839      4838      4836      4839      4840      4839      4841
      4840      4839      4842      4841      4839      4842      4843      4846      4847
      4843      4846      4848      4843      4846      4849      4844      4843      4845
      4844      4843      4846      4845      4843      4846      4846      4849      4850
      4846      4849      4851      4846      4849      4852      4847      4846      4848
      4847      4846      4849      4848      4846      4849      4849      4852      4853
      4849      4852      4854      4849      4852      4855      4850      4849      4851
      4850      4849      4852      4851      4849      4852      4852      4855      4856
      4852      4855      4857      4852      4855      4858      4853      4852      4854
      4853      4852      4855      4854      4852      4855      4855      4858      4859
      4855      4858      4860      4855      4858      4861      4856      4855      4857
      4856      4855      4858      4857      4855      4858      4858      4861      4862
      4858      4861      4863      4859      4858      4860      4859      4858      4861
      4860      4858      4861      4861      4863      4864      4861      4863      4865
      4862      4861      4863      4863      4865      4866      4863      4865      4867
      4863      4865      4868      4864      4863      4865      4865      4868      4869
      4865      4868      4870      4865      4868      4871      4866      4865      4867
      4866      4865      4868      4867      4865      4868      4868      4871      4872
      4868      4871      4873      4868      4871      4874      4869      4868      4870
      4869      4868      4871      4870      4868      4871      4871      4874      4875
      4871      4874      4876      4871      4874      4877      4872      4871      4873
      4872      4871      4874      4873      4871      4874      4874      4877      4878
      4874      4877      4879      4874      4877      4880      4875      4874      4876
      4875      4874      4877      4876      4874      4877      4877      4880      4881
      4877      4880      4882      4877      4880      4883      4878      4877      4879
      4878      4877      4880      4879      4877      4880      4880      4883      4884
      4880      4883      4885      4880      4883      4886      4881      4880      4882
      4881      4880      4883      4882      4880      4883      4883      4886      4887
      4883      4886      4888      4883      4886      4889      4884      4883      4885
      4884      4883      4886      4885      4883      4886      4887      4886      4888
      4887      4886      4889      4888      4886      4889      4890      4892      4893
      4890      4894      4895      4890      4894      4896      4890      4894      4897
      4890      4936      4933      4890      4936      4937      4890      4936      4938
      4891      4890      4892      4891      4890      4894      4891      4890      4936
      4892      4890      4894      4892      4890      4936      4894      4890      4936
      4894      4897      4898      4894      4897      4928      4895      4894      4896
      4895      4894      4897      4896      4894      4897      4897      4898      4899
      4897      4898      4900      4897      4928      4926      4897      4928      4929
      4897      4928      4933      4898      4897      4928      4898      4900      4901
      4898      4900      4902      4898      4900      4903      4899      4898      4900
      4900      4903      4904      4900      4903      4905      4900      4903      4926
      4901      4900      4902      4901      4900      4903      4902      4900      4903
      4903      4905      4906      4903      4905      4907      4903      4905      4915
      4903      4926      4923      4903      4926      4927      4903      4926      4928
      4904      4903      4905      4904      4903      4926      4905      4903      4926
      4905      4907      4908      4905      4907      4909      4905      4907      4910
      4905      4915      4913      4905      4915      4916      4905      4915      4920
      4906      4905      4907      4906      4905      4915      4907      4905      4915
      4907      4910      4911      4907      4910      4912      4907      4910      4913
      4908      4907      4909      4908      4907      4910      4909      4907      4910
      4910      4913      4914      4910      4913      4915      4910      4913      4939
      4911      4910      4912      4911      4910      4913      4912      4910      4913
      4913      4915      4916      4913      4915      4920      4913      4939      4940
      4913      4939      4941      4913      4939      4945      4914      4913      4915
      4914      4913      4939      4915      4913      4939      4915      4916      4917
      4915      4916      4918      4915      4916      4919      4915      4920      4921
      4915      4920      4922      4915      4920      4923      4916      4915      4920
      4917      4916      4918      4917      4916      4919      4918      4916      4919
      4920      4923      4924      4920      4923      4925      4920      4923      4926
      4921      4920      4922      4921      4920      4923      4922      4920      4923
      4923      4926      4927      4923      4926      4928      4924      4923      4925
      4924      4923      4926      4925      4923      4926      4926      4928      4929
      4926      4928      4933      4927      4926      4928      4928      4929      4930
      4928      4929      4931      4928      4929      4932      4928      4933      4934
      4928      4933      4935      4928      4933      4936      4929      4928      4933
      4930      4929      4931      4930      4929      4932      4931      4929      4932
      4933      4936      4937      4933      4936      4938      4934      4933      4935
      4934      4933      4936      4935      4933      4936      4937      4936      4938
      4939      4941      4942      4939      4941      4943      4939      4941      4944
      4939      4945      4946      4939      4945      4947      4939      4945      4948
      4940      4939      4941      4940      4939      4945      4941      4939      4945
      4942      4941      4943      4942      4941      4944      4943      4941      4944
      4945      4948      4949      4945      4948      4950      4945      4948      4951
      4946      4945      4947      4946      4945      4948      4947      4945      4948
      4948      4951      4952      4948      4951      4953      4948      4951      4954
      4949      4948      4950      4949      4948      4951      4950      4948      4951
      4951      4954      4955      4951      4954      4956      4951      4954      4960
      4952      4951      4953      4952      4951      4954      4953      4951      4954
      4954      4956      4957      4954      4956      4958      4954      4956      4959
      4954      4960      4961      4954      4960      4962      4954      4960      4963
      4955      4954      4956      4955      4954      4960      4956      4954      4960
      4957      4956      4958      4957      4956      4959      4958      4956      4959
      4961      4960      4962      4961      4960      4963      4962      4960      4963
      4964      4968      4969      4964      4968      4970      4964      4968      4971
      4965      4964      4966      4965      4964      4967      4965      4964      4968
      4966      4964      4967      4966      4964      4968      4967      4964      4968
      4968      4971      4972      4968      4971      4973      4968      4971      4978
      4969      4968      4970      4969      4968      4971      4970      4968      4971
      4971      4978      4974      4972      4971      4973      4972      4971      4978
      4973      4971      4978      4974      4977      4979      4975      4974      4976
      4975      4974      4977      4975      4974      4978      4976      4974      4977
      4976      4974      4978      4977      4974      4978      4977      4979      4980
      4977      4979      4981      4977      4979      4982      4979      4982      4983
      4979      4982      4984      4979      4982      4990      4980      4979      4981
      4980      4979      4982      4981      4979      4982      4982      4984      4985
      4982      4990      4991      4982      4990      4992      4982      4990      4993
      4983      4982      4984      4983      4982      4990      4984      4982      4990
      4984      4985      4986      4984      4985      4987      4985      4987      4988
      4985      4987      4989      4985      4987      4999      4986      4985      4987
      4987      4999      5000      4987      4999      5001      4987      4999      5002
      4988      4987      4989      4988      4987      4999      4989      4987      4999
      4990      4993      4994      4991      4990      4992      4991      4990      4993
      4992      4990      4993      4993      4994      4995      4993      4994      4996
      4994      4996      4997      4994      4996      4998      4994      4996      5046
      4995      4994      4996      4996      5046      5047      4996      5046      5048
      4996      5046      5049      4997      4996      4998      4997      4996      5046
      4998      4996      5046      4999      5002      5003      4999      5002      5004
      4999      5002      5005      5000      4999      5001      5000      4999      5002
      5001      4999      5002      5002      5005      5006      5002      5005      5007
      5002      5005      5008      5003      5002      5004      5003      5002      5005
      5004      5002      5005      5005      5008      5009      5005      5008      5010
      5005      5008      5011      5006      5005      5007      5006      5005      5008
      5007      5005      5008      5008      5011      5012      5008      5011      5013
      5008      5011      5014      5009      5008      5010      5009      5008      5011
      5010      5008      5011      5011      5014      5015      5011      5014      5016
      5011      5014      5017      5012      5011      5013      5012      5011      5014
      5013      5011      5014      5014      5017      5018      5014      5017      5019
      5015      5014      5016      5015      5014      5017      5016      5014      5017
      5017      5019      5020      5017      5019      5021      5018      5017      5019
      5019      5021      5022      5019      5021      5023      5019      5021      5024
      5020      5019      5021      5021      5024      5025      5021      5024      5026
      5021      5024      5027      5022      5021      5023      5022      5021      5024
      5023      5021      5024      5024      5027      5028      5024      5027      5029
      5024      5027      5030      5025      5024      5026      5025      5024      5027
      5026      5024      5027      5027      5030      5031      5027      5030      5032
      5027      5030      5033      5028      5027      5029      5028      5027      5030
      5029      5027      5030      5030      5033      5034      5030      5033      5035
      5030      5033      5036      5031      5030      5032      5031      5030      5033
      5032      5030      5033      5033      5036      5037      5033      5036      5038
      5033      5036      5039      5034      5033      5035      5034      5033      5036
      5035      5033      5036      5036      5039      5040      5036      5039      5041
      5036      5039      5042      5037      5036      5038      5037      5036      5039
      5038      5036      5039      5039      5042      5043      5039      5042      5044
      5039      5042      5045      5040      5039      5041      5040      5039      5042
      5041      5039      5042      5043      5042      5044      5043      5042      5045
      5044      5042      5045      5046      5049      5050      5046      5049      5051
      5046      5049      5052      5047      5046      5048      5047      5046      5049
      5048      5046      5049      5049      5052      5053      5049      5052      5054
      5049      5052      5055      5050      5049      5051      5050      5049      5052
      5051      5049      5052      5052      5055      5056      5052      5055      5057
      5052      5055      5058      5053      5052      5054      5053      5052      5055
      5054      5052      5055      5055      5058      5059      5055      5058      5060
      5055      5058      5061      5056      5055      5057      5056      5055      5058
      5057      5055      5058      5058      5061      5062      5058      5061      5063
      5058      5061      5064      5059      5058      5060      5059      5058      5061
      5060      5058      5061      5061      5064      5065      5061      5064      5066
      5062      5061      5063      5062      5061      5064      5063      5061      5064
      5064      5066      5067      5064      5066      5068      5065      5064      5066
      5066      5068      5069      5066      5068      5070      5066      5068      5071
      5067      5066      5068      5068      5071      5072      5068      5071      5073
      5068      5071      5074      5069      5068      5070      5069      5068      5071
      5070      5068      5071      5071      5074      5075      5071      5074      5076
      5071      5074      5077      5072      5071      5073      5072      5071      5074
      5073      5071      5074      5074      5077      5078      5074      5077      5079
      5074      5077      5080      5075      5074      5076      5075      5074      5077
      5076      5074      5077      5077      5080      5081      5077      5080      5082
      5077      5080      5083      5078      5077      5079      5078      5077      5080
      5079      5077      5080      5080      5083      5084      5080      5083      5085
      5080      5083      5086      5081      5080      5082      5081      5080      5083
      5082      5080      5083      5083      5086      5087      5083      5086      5088
      5083      5086      5089      5084      5083      5085      5084      5083      5086
      5085      5083      5086      5086      5089      5090      5086      5089      5091
      5086      5089      5092      5087      5086      5088      5087      5086      5089
      5088      5086      5089      5090      5089      5091      5090      5089      5092
      5091      5089      5092      5093      5097      5098      5093      5097      5099
      5093      5097      5100      5094      5093      5095      5094      5093      5096
      5094      5093      5097      5095      5093      5096      5095      5093      5097
      5096      5093      5097      5097      5100      5101      5097      5100      5102
      5097      5100      5107      5098      5097      5099      5098      5097      5100
      5099      5097      5100      5100      5107      5103      5101      5100      5102
      5101      5100      5107      5102      5100      5107      5103      5106      5108
      5104      5103      5105      5104      5103      5106      5104      5103      5107
      5105      5103      5106      5105      5103      5107      5106      5103      5107
      5106      5108      5109      5106      5108      5110      5106      5108      5111
      5108      5111      5112      5108      5111      5113      5108      5111      5119
      5109      5108      5110      5109      5108      5111      5110      5108      5111
      5111      5113      5114      5111      5119      5120      5111      5119      5121
      5111      5119      5122      5112      5111      5113      5112      5111      5119
      5113      5111      5119      5113      5114      5115      5113      5114      5116
      5114      5116      5117      5114      5116      5118      5114      5116      5128
      5115      5114      5116      5116      5128      5129      5116      5128      5130
      5116      5128      5131      5117      5116      5118      5117      5116      5128
      5118      5116      5128      5119      5122      5123      5120      5119      5121
      5120      5119      5122      5121      5119      5122      5122      5123      5124
      5122      5123      5125      5123      5125      5126      5123      5125      5127
      5123      5125      5175      5124      5123      5125      5125      5175      5176
      5125      5175      5177      5125      5175      5178      5126      5125      5127
      5126      5125      5175      5127      5125      5175      5128      5131      5132
      5128      5131      5133      5128      5131      5134      5129      5128      5130
      5129      5128      5131      5130      5128      5131      5131      5134      5135
      5131      5134      5136      5131      5134      5137      5132      5131      5133
      5132      5131      5134      5133      5131      5134      5134      5137      5138
      5134      5137      5139      5134      5137      5140      5135      5134      5136
      5135      5134      5137      5136      5134      5137      5137      5140      5141
      5137      5140      5142      5137      5140      5143      5138      5137      5139
      5138      5137      5140      5139      5137      5140      5140      5143      5144
      5140      5143      5145      5140      5143      5146      5141      5140      5142
      5141      5140      5143      5142      5140      5143      5143      5146      5147
      5143      5146      5148      5144      5143      5145      5144      5143      5146
      5145      5143      5146      5146      5148      5149      5146      5148      5150
      5147      5146      5148      5148      5150      5151      5148      5150      5152
      5148      5150      5153      5149      5148      5150      5150      5153      5154
      5150      5153      5155      5150      5153      5156      5151      5150      5152
      5151      5150      5153      5152      5150      5153      5153      5156      5157
      5153      5156      5158      5153      5156      5159      5154      5153      5155
      5154      5153      5156      5155      5153      5156      5156      5159      5160
      5156      5159      5161      5156      5159      5162      5157      5156      5158
      5157      5156      5159      5158      5156      5159      5159      5162      5163
      5159      5162      5164      5159      5162      5165      5160      5159      5161
      5160      5159      5162      5161      5159      5162      5162      5165      5166
      5162      5165      5167      5162      5165      5168      5163      5162      5164
      5163      5162      5165      5164      5162      5165      5165      5168      5169
      5165      5168      5170      5165      5168      5171      5166      5165      5167
      5166      5165      5168      5167      5165      5168      5168      5171      5172
      5168      5171      5173      5168      5171      5174      5169      5168      5170
      5169      5168      5171      5170      5168      5171      5172      5171      5173
      5172      5171      5174      5173      5171      5174      5175      5178      5179
      5175      5178      5180      5175      5178      5181      5176      5175      5177
      5176      5175      5178      5177      5175      5178      5178      5181      5182
      5178      5181      5183      5178      5181      5184      5179      5178      5180
      5179      5178      5181      5180      5178      5181      5181      5184      5185
      5181      5184      5186      5181      5184      5187      5182      5181      5183
      5182      5181      5184      5183      5181      5184      5184      5187      5188
      5184      5187      5189      5184      5187      5190      5185      5184      5186
      5185      5184      5187      5186      5184      5187      5187      5190      5191
      5187      5190      5192      5187      5190      5193      5188      5187      5189
      5188      5187      5190      5189      5187      5190      5190      5193      5194
      5190      5193      5195      5191      5190      5192      5191      5190      5193
      5192      5190      5193      5193      5195      5196      5193      5195      5197
      5194      5193      5195      5195      5197      5198      5195      5197      5199
      5195      5197      5200      5196      5195      5197      5197      5200      5201
      5197      5200      5202      5197      5200      5203      5198      5197      5199
      5198      5197      5200      5199      5197      5200      5200      5203      5204
      5200      5203      5205      5200      5203      5206      5201      5200      5202
      5201      5200      5203      5202      5200      5203      5203      5206      5207
      5203      5206      5208      5203      5206      5209      5204      5203      5205
      5204      5203      5206      5205      5203      5206      5206      5209      5210
      5206      5209      5211      5206      5209      5212      5207      5206      5208
      5207      5206      5209      5208      5206      5209      5209      5212      5213
      5209      5212      5214      5209      5212      5215      5210      5209      5211
      5210      5209      5212      5211      5209      5212      5212      5215      5216
      5212      5215      5217      5212      5215      5218      5213      5212      5214
      5213      5212      5215      5214      5212      5215      5215      5218      5219
      5215      5218      5220      5215      5218      5221      5216      5215      5217
      5216      5215      5218      5217      5215      5218      5219      5218      5220
      5219      5218      5221      5220      5218      5221      5222      5223      5224
      5222      5223      5225      5222      5223      5238      5222      5226      5227
      5222      5226      5228      5222      5226      5229      5222      5230      5231
      5222      5230      5232      5222      5230      5233      5222      5234      5235
      5222      5234      5236      5222      5234      5237      5223      5222      5226
      5223      5222      5230      5223      5222      5234      5223      5238      5239
      5223      5238      5240      5223      5238      5244      5224      5223      5225
      5224      5223      5238      5225      5223      5238      5226      5222      5230
      5226      5222      5234      5227      5226      5228      5227      5226      5229
      5228      5226      5229      5230      5222      5234      5231      5230      5232
      5231      5230      5233      5232      5230      5233      5235      5234      5236
      5235      5234      5237      5236      5234      5237      5238      5244      5241
      5239      5238      5240      5239      5238      5244      5240      5238      5244
      5241      5245      5246      5242      5241      5243      5242      5241      5244
      5242      5241      5245      5243      5241      5244      5243      5241      5245
      5244      5241      5245      5245      5246      5247      5245      5246      5248
      5245      5246      5249      5246      5249      5250      5246      5249      5251
      5246      5249      5257      5247      5246      5248      5247      5246      5249
      5248      5246      5249      5249      5251      5252      5249      5257      5258
      5249      5257      5259      5249      5257      5260      5250      5249      5251
      5250      5249      5257      5251      5249      5257      5251      5252      5253
      5251      5252      5254      5252      5254      5255      5252      5254      5256
      5252      5254      5266      5253      5252      5254      5254      5266      5267
      5254      5266      5268      5254      5266      5269      5255      5254      5256
      5255      5254      5266      5256      5254      5266      5257      5260      5261
      5258      5257      5259      5258      5257      5260      5259      5257      5260
      5260      5261      5262      5260      5261      5263      5261      5263      5264
      5261      5263      5265      5261      5263      5313      5262      5261      5263
      5263      5313      5314      5263      5313      5315      5263      5313      5316
      5264      5263      5265      5264      5263      5313      5265      5263      5313
      5266      5269      5270      5266      5269      5271      5266      5269      5272
      5267      5266      5268      5267      5266      5269      5268      5266      5269
      5269      5272      5273      5269      5272      5274      5269      5272      5275
      5270      5269      5271      5270      5269      5272      5271      5269      5272
      5272      5275      5276      5272      5275      5277      5272      5275      5278
      5273      5272      5274      5273      5272      5275      5274      5272      5275
      5275      5278      5279      5275      5278      5280      5275      5278      5281
      5276      5275      5277      5276      5275      5278      5277      5275      5278
      5278      5281      5282      5278      5281      5283      5278      5281      5284
      5279      5278      5280      5279      5278      5281      5280      5278      5281
      5281      5284      5285      5281      5284      5286      5282      5281      5283
      5282      5281      5284      5283      5281      5284      5284      5286      5287
      5284      5286      5288      5285      5284      5286      5286      5288      5289
      5286      5288      5290      5286      5288      5291      5287      5286      5288
      5288      5291      5292      5288      5291      5293      5288      5291      5294
      5289      5288      5290      5289      5288      5291      5290      5288      5291
      5291      5294      5295      5291      5294      5296      5291      5294      5297
      5292      5291      5293      5292      5291      5294      5293      5291      5294
      5294      5297      5298      5294      5297      5299      5294      5297      5300
      5295      5294      5296      5295      5294      5297      5296      5294      5297
      5297      5300      5301      5297      5300      5302      5297      5300      5303
      5298      5297      5299      5298      5297      5300      5299      5297      5300
      5300      5303      5304      5300      5303      5305      5300      5303      5306
      5301      5300      5302      5301      5300      5303      5302      5300      5303
      5303      5306      5307      5303      5306      5308      5303      5306      5309
      5304      5303      5305      5304      5303      5306      5305      5303      5306
      5306      5309      5310      5306      5309      5311      5306      5309      5312
      5307      5306      5308      5307      5306      5309      5308      5306      5309
      5310      5309      5311      5310      5309      5312      5311      5309      5312
      5313      5316      5317      5313      5316      5318      5313      5316      5319
      5314      5313      5315      5314      5313      5316      5315      5313      5316
      5316      5319      5320      5316      5319      5321      5316      5319      5322
      5317      5316      5318      5317      5316      5319      5318      5316      5319
      5319      5322      5323      5319      5322      5324      5319      5322      5325
      5320      5319      5321      5320      5319      5322      5321      5319      5322
      5322      5325      5326      5322      5325      5327      5322      5325      5328
      5323      5322      5324      5323      5322      5325      5324      5322      5325
      5325      5328      5329      5325      5328      5330      5325      5328      5331
      5326      5325      5327      5326      5325      5328      5327      5325      5328
      5328      5331      5332      5328      5331      5333      5329      5328      5330
      5329      5328      5331      5330      5328      5331      5331      5333      5334
      5331      5333      5335      5332      5331      5333      5333      5335      5336
      5333      5335      5337      5333      5335      5338      5334      5333      5335
      5335      5338      5339      5335      5338      5340      5335      5338      5341
      5336      5335      5337      5336      5335      5338      5337      5335      5338
      5338      5341      5342      5338      5341      5343      5338      5341      5344
      5339      5338      5340      5339      5338      5341      5340      5338      5341
      5341      5344      5345      5341      5344      5346      5341      5344      5347
      5342      5341      5343      5342      5341      5344      5343      5341      5344
      5344      5347      5348      5344      5347      5349      5344      5347      5350
      5345      5344      5346      5345      5344      5347      5346      5344      5347
      5347      5350      5351      5347      5350      5352      5347      5350      5353
      5348      5347      5349      5348      5347      5350      5349      5347      5350
      5350      5353      5354      5350      5353      5355      5350      5353      5356
      5351      5350      5352      5351      5350      5353      5352      5350      5353
      5353      5356      5357      5353      5356      5358      5353      5356      5359
      5354      5353      5355      5354      5353      5356      5355      5353      5356
      5357      5356      5358      5357      5356      5359      5358      5356      5359
      5360      5364      5365      5360      5364      5366      5360      5364      5367
      5361      5360      5362      5361      5360      5363      5361      5360      5364
      5362      5360      5363      5362      5360      5364      5363      5360      5364
      5364      5367      5368      5364      5367      5369      5364      5367      5374
      5365      5364      5366      5365      5364      5367      5366      5364      5367
      5367      5374      5370      5368      5367      5369      5368      5367      5374
      5369      5367      5374      5370      5373      5375      5371      5370      5372
      5371      5370      5373      5371      5370      5374      5372      5370      5373
      5372      5370      5374      5373      5370      5374      5373      5375      5376
      5373      5375      5377      5373      5375      5378      5375      5378      5379
      5375      5378      5380      5375      5378      5386      5376      5375      5377
      5376      5375      5378      5377      5375      5378      5378      5380      5381
      5378      5386      5387      5378      5386      5388      5378      5386      5389
      5379      5378      5380      5379      5378      5386      5380      5378      5386
      5380      5381      5382      5380      5381      5383      5381      5383      5384
      5381      5383      5385      5381      5383      5395      5382      5381      5383
      5383      5395      5396      5383      5395      5397      5383      5395      5398
      5384      5383      5385      5384      5383      5395      5385      5383      5395
      5386      5389      5390      5387      5386      5388      5387      5386      5389
      5388      5386      5389      5389      5390      5391      5389      5390      5392
      5390      5392      5393      5390      5392      5394      5390      5392      5442
      5391      5390      5392      5392      5442      5443      5392      5442      5444
      5392      5442      5445      5393      5392      5394      5393      5392      5442
      5394      5392      5442      5395      5398      5399      5395      5398      5400
      5395      5398      5401      5396      5395      5397      5396      5395      5398
      5397      5395      5398      5398      5401      5402      5398      5401      5403
      5398      5401      5404      5399      5398      5400      5399      5398      5401
      5400      5398      5401      5401      5404      5405      5401      5404      5406
      5401      5404      5407      5402      5401      5403      5402      5401      5404
      5403      5401      5404      5404      5407      5408      5404      5407      5409
      5404      5407      5410      5405      5404      5406      5405      5404      5407
      5406      5404      5407      5407      5410      5411      5407      5410      5412
      5407      5410      5413      5408      5407      5409      5408      5407      5410
      5409      5407      5410      5410      5413      5414      5410      5413      5415
      5411      5410      5412      5411      5410      5413      5412      5410      5413
      5413      5415      5416      5413      5415      5417      5414      5413      5415
      5415      5417      5418      5415      5417      5419      5415      5417      5420
      5416      5415      5417      5417      5420      5421      5417      5420      5422
      5417      5420      5423      5418      5417      5419      5418      5417      5420
      5419      5417      5420      5420      5423      5424      5420      5423      5425
      5420      5423      5426      5421      5420      5422      5421      5420      5423
      5422      5420      5423      5423      5426      5427      5423      5426      5428
      5423      5426      5429      5424      5423      5425      5424      5423      5426
      5425      5423      5426      5426      5429      5430      5426      5429      5431
      5426      5429      5432      5427      5426      5428      5427      5426      5429
      5428      5426      5429      5429      5432      5433      5429      5432      5434
      5429      5432      5435      5430      5429      5431      5430      5429      5432
      5431      5429      5432      5432      5435      5436      5432      5435      5437
      5432      5435      5438      5433      5432      5434      5433      5432      5435
      5434      5432      5435      5435      5438      5439      5435      5438      5440
      5435      5438      5441      5436      5435      5437      5436      5435      5438
      5437      5435      5438      5439      5438      5440      5439      5438      5441
      5440      5438      5441      5442      5445      5446      5442      5445      5447
      5442      5445      5448      5443      5442      5444      5443      5442      5445
      5444      5442      5445      5445      5448      5449      5445      5448      5450
      5445      5448      5451      5446      5445      5447      5446      5445      5448
      5447      5445      5448      5448      5451      5452      5448      5451      5453
      5448      5451      5454      5449      5448      5450      5449      5448      5451
      5450      5448      5451      5451      5454      5455      5451      5454      5456
      5451      5454      5457      5452      5451      5453      5452      5451      5454
      5453      5451      5454      5454      5457      5458      5454      5457      5459
      5454      5457      5460      5455      5454      5456      5455      5454      5457
      5456      5454      5457      5457      5460      5461      5457      5460      5462
      5458      5457      5459      5458      5457      5460      5459      5457      5460
      5460      5462      5463      5460      5462      5464      5461      5460      5462
      5462      5464      5465      5462      5464      5466      5462      5464      5467
      5463      5462      5464      5464      5467      5468      5464      5467      5469
      5464      5467      5470      5465      5464      5466      5465      5464      5467
      5466      5464      5467      5467      5470      5471      5467      5470      5472
      5467      5470      5473      5468      5467      5469      5468      5467      5470
      5469      5467      5470      5470      5473      5474      5470      5473      5475
      5470      5473      5476      5471      5470      5472      5471      5470      5473
      5472      5470      5473      5473      5476      5477      5473      5476      5478
      5473      5476      5479      5474      5473      5475      5474      5473      5476
      5475      5473      5476      5476      5479      5480      5476      5479      5481
      5476      5479      5482      5477      5476      5478      5477      5476      5479
      5478      5476      5479      5479      5482      5483      5479      5482      5484
      5479      5482      5485      5480      5479      5481      5480      5479      5482
      5481      5479      5482      5482      5485      5486      5482      5485      5487
      5482      5485      5488      5483      5482      5484      5483      5482      5485
      5484      5482      5485      5486      5485      5487      5486      5485      5488
      5487      5485      5488      5489      5490      5491      5489      5490      5492
      5489      5490      5505      5489      5493      5494      5489      5493      5495
      5489      5493      5496      5489      5497      5498      5489      5497      5499
      5489      5497      5500      5489      5501      5502      5489      5501      5503
      5489      5501      5504      5490      5489      5493      5490      5489      5497
      5490      5489      5501      5490      5505      5506      5490      5505      5507
      5490      5505      5511      5491      5490      5492      5491      5490      5505
      5492      5490      5505      5493      5489      5497      5493      5489      5501
      5494      5493      5495      5494      5493      5496      5495      5493      5496
      5497      5489      5501      5498      5497      5499      5498      5497      5500
      5499      5497      5500      5502      5501      5503      5502      5501      5504
      5503      5501      5504      5505      5511      5508      5506      5505      5507
      5506      5505      5511      5507      5505      5511      5508      5512      5513
      5509      5508      5510      5509      5508      5511      5509      5508      5512
      5510      5508      5511      5510      5508      5512      5511      5508      5512
      5512      5513      5514      5512      5513      5515      5512      5513      5516
      5513      5516      5517      5513      5516      5518      5513      5516      5524
      5514      5513      5515      5514      5513      5516      5515      5513      5516
      5516      5518      5519      5516      5524      5525      5516      5524      5526
      5516      5524      5527      5517      5516      5518      5517      5516      5524
      5518      5516      5524      5518      5519      5520      5518      5519      5521
      5519      5521      5522      5519      5521      5523      5519      5521      5533
      5520      5519      5521      5521      5533      5534      5521      5533      5535
      5521      5533      5536      5522      5521      5523      5522      5521      5533
      5523      5521      5533      5524      5527      5528      5525      5524      5526
      5525      5524      5527      5526      5524      5527      5527      5528      5529
      5527      5528      5530      5528      5530      5531      5528      5530      5532
      5528      5530      5580      5529      5528      5530      5530      5580      5581
      5530      5580      5582      5530      5580      5583      5531      5530      5532
      5531      5530      5580      5532      5530      5580      5533      5536      5537
      5533      5536      5538      5533      5536      5539      5534      5533      5535
      5534      5533      5536      5535      5533      5536      5536      5539      5540
      5536      5539      5541      5536      5539      5542      5537      5536      5538
      5537      5536      5539      5538      5536      5539      5539      5542      5543
      5539      5542      5544      5539      5542      5545      5540      5539      5541
      5540      5539      5542      5541      5539      5542      5542      5545      5546
      5542      5545      5547      5542      5545      5548      5543      5542      5544
      5543      5542      5545      5544      5542      5545      5545      5548      5549
      5545      5548      5550      5545      5548      5551      5546      5545      5547
      5546      5545      5548      5547      5545      5548      5548      5551      5552
      5548      5551      5553      5549      5548      5550      5549      5548      5551
      5550      5548      5551      5551      5553      5554      5551      5553      5555
      5552      5551      5553      5553      5555      5556      5553      5555      5557
      5553      5555      5558      5554      5553      5555      5555      5558      5559
      5555      5558      5560      5555      5558      5561      5556      5555      5557
      5556      5555      5558      5557      5555      5558      5558      5561      5562
      5558      5561      5563      5558      5561      5564      5559      5558      5560
      5559      5558      5561      5560      5558      5561      5561      5564      5565
      5561      5564      5566      5561      5564      5567      5562      5561      5563
      5562      5561      5564      5563      5561      5564      5564      5567      5568
      5564      5567      5569      5564      5567      5570      5565      5564      5566
      5565      5564      5567      5566      5564      5567      5567      5570      5571
      5567      5570      5572      5567      5570      5573      5568      5567      5569
      5568      5567      5570      5569      5567      5570      5570      5573      5574
      5570      5573      5575      5570      5573      5576      5571      5570      5572
      5571      5570      5573      5572      5570      5573      5573      5576      5577
      5573      5576      5578      5573      5576      5579      5574      5573      5575
      5574      5573      5576      5575      5573      5576      5577      5576      5578
      5577      5576      5579      5578      5576      5579      5580      5583      5584
      5580      5583      5585      5580      5583      5586      5581      5580      5582
      5581      5580      5583      5582      5580      5583      5583      5586      5587
      5583      5586      5588      5583      5586      5589      5584      5583      5585
      5584      5583      5586      5585      5583      5586      5586      5589      5590
      5586      5589      5591      5586      5589      5592      5587      5586      5588
      5587      5586      5589      5588      5586      5589      5589      5592      5593
      5589      5592      5594      5589      5592      5595      5590      5589      5591
      5590      5589      5592      5591      5589      5592      5592      5595      5596
      5592      5595      5597      5592      5595      5598      5593      5592      5594
      5593      5592      5595      5594      5592      5595      5595      5598      5599
      5595      5598      5600      5596      5595      5597      5596      5595      5598
      5597      5595      5598      5598      5600      5601      5598      5600      5602
      5599      5598      5600      5600      5602      5603      5600      5602      5604
      5600      5602      5605      5601      5600      5602      5602      5605      5606
      5602      5605      5607      5602      5605      5608      5603      5602      5604
      5603      5602      5605      5604      5602      5605      5605      5608      5609
      5605      5608      5610      5605      5608      5611      5606      5605      5607
      5606      5605      5608      5607      5605      5608      5608      5611      5612
      5608      5611      5613      5608      5611      5614      5609      5608      5610
      5609      5608      5611      5610      5608      5611      5611      5614      5615
      5611      5614      5616      5611      5614      5617      5612      5611      5613
      5612      5611      5614      5613      5611      5614      5614      5617      5618
      5614      5617      5619      5614      5617      5620      5615      5614      5616
      5615      5614      5617      5616      5614      5617      5617      5620      5621
      5617      5620      5622      5617      5620      5623      5618      5617      5619
      5618      5617      5620      5619      5617      5620      5620      5623      5624
      5620      5623      5625      5620      5623      5626      5621      5620      5622
      5621      5620      5623      5622      5620      5623      5624      5623      5625
      5624      5623      5626      5625      5623      5626      5627      5631      5632
      5627      5631      5633      5627      5631      5634      5628      5627      5629
      5628      5627      5630      5628      5627      5631      5629      5627      5630
      5629      5627      5631      5630      5627      5631      5631      5634      5635
      5631      5634      5636      5631      5634      5641      5632      5631      5633
      5632      5631      5634      5633      5631      5634      5634      5641      5637
      5635      5634      5636      5635      5634      5641      5636      5634      5641
      5637      5640      5642      5638      5637      5639      5638      5637      5640
      5638      5637      5641      5639      5637      5640      5639      5637      5641
      5640      5637      5641      5640      5642      5643      5640      5642      5644
      5640      5642      5645      5642      5645      5646      5642      5645      5647
      5642      5645      5653      5643      5642      5644      5643      5642      5645
      5644      5642      5645      5645      5647      5648      5645      5653      5654
      5645      5653      5655      5645      5653      5656      5646      5645      5647
      5646      5645      5653      5647      5645      5653      5647      5648      5649
      5647      5648      5650      5648      5650      5651      5648      5650      5652
      5648      5650      5662      5649      5648      5650      5650      5662      5663
      5650      5662      5664      5650      5662      5665      5651      5650      5652
      5651      5650      5662      5652      5650      5662      5653      5656      5657
      5654      5653      5655      5654      5653      5656      5655      5653      5656
      5656      5657      5658      5656      5657      5659      5657      5659      5660
      5657      5659      5661      5657      5659      5709      5658      5657      5659
      5659      5709      5710      5659      5709      5711      5659      5709      5712
      5660      5659      5661      5660      5659      5709      5661      5659      5709
      5662      5665      5666      5662      5665      5667      5662      5665      5668
      5663      5662      5664      5663      5662      5665      5664      5662      5665
      5665      5668      5669      5665      5668      5670      5665      5668      5671
      5666      5665      5667      5666      5665      5668      5667      5665      5668
      5668      5671      5672      5668      5671      5673      5668      5671      5674
      5669      5668      5670      5669      5668      5671      5670      5668      5671
      5671      5674      5675      5671      5674      5676      5671      5674      5677
      5672      5671      5673      5672      5671      5674      5673      5671      5674
      5674      5677      5678      5674      5677      5679      5674      5677      5680
      5675      5674      5676      5675      5674      5677      5676      5674      5677
      5677      5680      5681      5677      5680      5682      5678      5677      5679
      5678      5677      5680      5679      5677      5680      5680      5682      5683
      5680      5682      5684      5681      5680      5682      5682      5684      5685
      5682      5684      5686      5682      5684      5687      5683      5682      5684
      5684      5687      5688      5684      5687      5689      5684      5687      5690
      5685      5684      5686      5685      5684      5687      5686      5684      5687
      5687      5690      5691      5687      5690      5692      5687      5690      5693
      5688      5687      5689      5688      5687      5690      5689      5687      5690
      5690      5693      5694      5690      5693      5695      5690      5693      5696
      5691      5690      5692      5691      5690      5693      5692      5690      5693
      5693      5696      5697      5693      5696      5698      5693      5696      5699
      5694      5693      5695      5694      5693      5696      5695      5693      5696
      5696      5699      5700      5696      5699      5701      5696      5699      5702
      5697      5696      5698      5697      5696      5699      5698      5696      5699
      5699      5702      5703      5699      5702      5704      5699      5702      5705
      5700      5699      5701      5700      5699      5702      5701      5699      5702
      5702      5705      5706      5702      5705      5707      5702      5705      5708
      5703      5702      5704      5703      5702      5705      5704      5702      5705
      5706      5705      5707      5706      5705      5708      5707      5705      5708
      5709      5712      5713      5709      5712      5714      5709      5712      5715
      5710      5709      5711      5710      5709      5712      5711      5709      5712
      5712      5715      5716      5712      5715      5717      5712      5715      5718
      5713      5712      5714      5713      5712      5715      5714      5712      5715
      5715      5718      5719      5715      5718      5720      5715      5718      5721
      5716      5715      5717      5716      5715      5718      5717      5715      5718
      5718      5721      5722      5718      5721      5723      5718      5721      5724
      5719      5718      5720      5719      5718      5721      5720      5718      5721
      5721      5724      5725      5721      5724      5726      5721      5724      5727
      5722      5721      5723      5722      5721      5724      5723      5721      5724
      5724      5727      5728      5724      5727      5729      5725      5724      5726
      5725      5724      5727      5726      5724      5727      5727      5729      5730
      5727      5729      5731      5728      5727      5729      5729      5731      5732
      5729      5731      5733      5729      5731      5734      5730      5729      5731
      5731      5734      5735      5731      5734      5736      5731      5734      5737
      5732      5731      5733      5732      5731      5734      5733      5731      5734
      5734      5737      5738      5734      5737      5739      5734      5737      5740
      5735      5734      5736      5735      5734      5737      5736      5734      5737
      5737      5740      5741      5737      5740      5742      5737      5740      5743
      5738      5737      5739      5738      5737      5740      5739      5737      5740
      5740      5743      5744      5740      5743      5745      5740      5743      5746
      5741      5740      5742      5741      5740      5743      5742      5740      5743
      5743      5746      5747      5743      5746      5748      5743      5746      5749
      5744      5743      5745      5744      5743      5746      5745      5743      5746
      5746      5749      5750      5746      5749      5751      5746      5749      5752
      5747      5746      5748      5747      5746      5749      5748      5746      5749
      5749      5752      5753      5749      5752      5754      5749      5752      5755
      5750      5749      5751      5750      5749      5752      5751      5749      5752
      5753      5752      5754      5753      5752      5755      5754      5752      5755
      5756      5757      5758      5756      5757      5759      5756      5757      5772
      5756      5760      5761      5756      5760      5762      5756      5760      5763
      5756      5764      5765      5756      5764      5766      5756      5764      5767
      5756      5768      5769      5756      5768      5770      5756      5768      5771
      5757      5756      5760      5757      5756      5764      5757      5756      5768
      5757      5772      5773      5757      5772      5774      5757      5772      5778
      5758      5757      5759      5758      5757      5772      5759      5757      5772
      5760      5756      5764      5760      5756      5768      5761      5760      5762
      5761      5760      5763      5762      5760      5763      5764      5756      5768
      5765      5764      5766      5765      5764      5767      5766      5764      5767
      5769      5768      5770      5769      5768      5771      5770      5768      5771
      5772      5778      5775      5773      5772      5774      5773      5772      5778
      5774      5772      5778      5775      5779      5780      5776      5775      5777
      5776      5775      5778      5776      5775      5779      5777      5775      5778
      5777      5775      5779      5778      5775      5779      5779      5780      5781
      5779      5780      5782      5779      5780      5783      5780      5783      5784
      5780      5783      5785      5780      5783      5791      5781      5780      5782
      5781      5780      5783      5782      5780      5783      5783      5785      5786
      5783      5791      5792      5783      5791      5793      5783      5791      5794
      5784      5783      5785      5784      5783      5791      5785      5783      5791
      5785      5786      5787      5785      5786      5788      5786      5788      5789
      5786      5788      5790      5786      5788      5800      5787      5786      5788
      5788      5800      5801      5788      5800      5802      5788      5800      5803
      5789      5788      5790      5789      5788      5800      5790      5788      5800
      5791      5794      5795      5792      5791      5793      5792      5791      5794
      5793      5791      5794      5794      5795      5796      5794      5795      5797
      5795      5797      5798      5795      5797      5799      5795      5797      5847
      5796      5795      5797      5797      5847      5848      5797      5847      5849
      5797      5847      5850      5798      5797      5799      5798      5797      5847
      5799      5797      5847      5800      5803      5804      5800      5803      5805
      5800      5803      5806      5801      5800      5802      5801      5800      5803
      5802      5800      5803      5803      5806      5807      5803      5806      5808
      5803      5806      5809      5804      5803      5805      5804      5803      5806
      5805      5803      5806      5806      5809      5810      5806      5809      5811
      5806      5809      5812      5807      5806      5808      5807      5806      5809
      5808      5806      5809      5809      5812      5813      5809      5812      5814
      5809      5812      5815      5810      5809      5811      5810      5809      5812
      5811      5809      5812      5812      5815      5816      5812      5815      5817
      5812      5815      5818      5813      5812      5814      5813      5812      5815
      5814      5812      5815      5815      5818      5819      5815      5818      5820
      5816      5815      5817      5816      5815      5818      5817      5815      5818
      5818      5820      5821      5818      5820      5822      5819      5818      5820
      5820      5822      5823      5820      5822      5824      5820      5822      5825
      5821      5820      5822      5822      5825      5826      5822      5825      5827
      5822      5825      5828      5823      5822      5824      5823      5822      5825
      5824      5822      5825      5825      5828      5829      5825      5828      5830
      5825      5828      5831      5826      5825      5827      5826      5825      5828
      5827      5825      5828      5828      5831      5832      5828      5831      5833
      5828      5831      5834      5829      5828      5830      5829      5828      5831
      5830      5828      5831      5831      5834      5835      5831      5834      5836
      5831      5834      5837      5832      5831      5833      5832      5831      5834
      5833      5831      5834      5834      5837      5838      5834      5837      5839
      5834      5837      5840      5835      5834      5836      5835      5834      5837
      5836      5834      5837      5837      5840      5841      5837      5840      5842
      5837      5840      5843      5838      5837      5839      5838      5837      5840
      5839      5837      5840      5840      5843      5844      5840      5843      5845
      5840      5843      5846      5841      5840      5842      5841      5840      5843
      5842      5840      5843      5844      5843      5845      5844      5843      5846
      5845      5843      5846      5847      5850      5851      5847      5850      5852
      5847      5850      5853      5848      5847      5849      5848      5847      5850
      5849      5847      5850      5850      5853      5854      5850      5853      5855
      5850      5853      5856      5851      5850      5852      5851      5850      5853
      5852      5850      5853      5853      5856      5857      5853      5856      5858
      5853      5856      5859      5854      5853      5855      5854      5853      5856
      5855      5853      5856      5856      5859      5860      5856      5859      5861
      5856      5859      5862      5857      5856      5858      5857      5856      5859
      5858      5856      5859      5859      5862      5863      5859      5862      5864
      5859      5862      5865      5860      5859      5861      5860      5859      5862
      5861      5859      5862      5862      5865      5866      5862      5865      5867
      5863      5862      5864      5863      5862      5865      5864      5862      5865
      5865      5867      5868      5865      5867      5869      5866      5865      5867
      5867      5869      5870      5867      5869      5871      5867      5869      5872
      5868      5867      5869      5869      5872      5873      5869      5872      5874
      5869      5872      5875      5870      5869      5871      5870      5869      5872
      5871      5869      5872      5872      5875      5876      5872      5875      5877
      5872      5875      5878      5873      5872      5874      5873      5872      5875
      5874      5872      5875      5875      5878      5879      5875      5878      5880
      5875      5878      5881      5876      5875      5877      5876      5875      5878
      5877      5875      5878      5878      5881      5882      5878      5881      5883
      5878      5881      5884      5879      5878      5880      5879      5878      5881
      5880      5878      5881      5881      5884      5885      5881      5884      5886
      5881      5884      5887      5882      5881      5883      5882      5881      5884
      5883      5881      5884      5884      5887      5888      5884      5887      5889
      5884      5887      5890      5885      5884      5886      5885      5884      5887
      5886      5884      5887      5887      5890      5891      5887      5890      5892
      5887      5890      5893      5888      5887      5889      5888      5887      5890
      5889      5887      5890      5891      5890      5892      5891      5890      5893
      5892      5890      5893      5894      5896      5897      5894      5898      5899
      5894      5898      5900      5894      5898      5901      5894      5940      5937
      5894      5940      5941      5894      5940      5942      5895      5894      5896
      5895      5894      5898      5895      5894      5940      5896      5894      5898
      5896      5894      5940      5898      5894      5940      5898      5901      5902
      5898      5901      5932      5899      5898      5900      5899      5898      5901
      5900      5898      5901      5901      5902      5903      5901      5902      5904
      5901      5932      5930      5901      5932      5933      5901      5932      5937
      5902      5901      5932      5902      5904      5905      5902      5904      5906
      5902      5904      5907      5903      5902      5904      5904      5907      5908
      5904      5907      5909      5904      5907      5930      5905      5904      5906
      5905      5904      5907      5906      5904      5907      5907      5909      5910
      5907      5909      5911      5907      5909      5919      5907      5930      5927
      5907      5930      5931      5907      5930      5932      5908      5907      5909
      5908      5907      5930      5909      5907      5930      5909      5911      5912
      5909      5911      5913      5909      5911      5914      5909      5919      5917
      5909      5919      5920      5909      5919      5924      5910      5909      5911
      5910      5909      5919      5911      5909      5919      5911      5914      5915
      5911      5914      5916      5911      5914      5917      5912      5911      5913
      5912      5911      5914      5913      5911      5914      5914      5917      5918
      5914      5917      5919      5914      5917      5943      5915      5914      5916
      5915      5914      5917      5916      5914      5917      5917      5919      5920
      5917      5919      5924      5917      5943      5944      5917      5943      5945
      5917      5943      5949      5918      5917      5919      5918      5917      5943
      5919      5917      5943      5919      5920      5921      5919      5920      5922
      5919      5920      5923      5919      5924      5925      5919      5924      5926
      5919      5924      5927      5920      5919      5924      5921      5920      5922
      5921      5920      5923      5922      5920      5923      5924      5927      5928
      5924      5927      5929      5924      5927      5930      5925      5924      5926
      5925      5924      5927      5926      5924      5927      5927      5930      5931
      5927      5930      5932      5928      5927      5929      5928      5927      5930
      5929      5927      5930      5930      5932      5933      5930      5932      5937
      5931      5930      5932      5932      5933      5934      5932      5933      5935
      5932      5933      5936      5932      5937      5938      5932      5937      5939
      5932      5937      5940      5933      5932      5937      5934      5933      5935
      5934      5933      5936      5935      5933      5936      5937      5940      5941
      5937      5940      5942      5938      5937      5939      5938      5937      5940
      5939      5937      5940      5941      5940      5942      5943      5945      5946
      5943      5945      5947      5943      5945      5948      5943      5949      5950
      5943      5949      5951      5943      5949      5952      5944      5943      5945
      5944      5943      5949      5945      5943      5949      5946      5945      5947
      5946      5945      5948      5947      5945      5948      5949      5952      5953
      5949      5952      5954      5949      5952      5955      5950      5949      5951
      5950      5949      5952      5951      5949      5952      5952      5955      5956
      5952      5955      5957      5952      5955      5958      5953      5952      5954
      5953      5952      5955      5954      5952      5955      5955      5958      5959
      5955      5958      5960      5955      5958      5964      5956      5955      5957
      5956      5955      5958      5957      5955      5958      5958      5960      5961
      5958      5960      5962      5958      5960      5963      5958      5964      5965
      5958      5964      5966      5958      5964      5967      5959      5958      5960
      5959      5958      5964      5960      5958      5964      5961      5960      5962
      5961      5960      5963      5962      5960      5963      5965      5964      5966
      5965      5964      5967      5966      5964      5967      5968      5969      5970
      5968      5969      5971      5968      5969      5972      5968      5973      5974
      5968      5973      5975      5968      5973      5976      5968      5977      5978
      5968      5977      5979      5968      5977      5980      5968      5981      5982
      5968      5981      5983      5968      5981      5984      5969      5968      5973
      5969      5968      5977      5969      5968      5981      5970      5969      5971
      5970      5969      5972      5971      5969      5972      5973      5968      5977
      5973      5968      5981      5974      5973      5975      5974      5973      5976
      5975      5973      5976      5977      5968      5981      5978      5977      5979
      5978      5977      5980      5979      5977      5980      5981      5984      5985
      5981      5984      5986      5981      5984      5991      5982      5981      5983
      5982      5981      5984      5983      5981      5984      5984      5991      5987
      5985      5984      5986      5985      5984      5991      5986      5984      5991
      5987      5990      5992      5988      5987      5989      5988      5987      5990
      5988      5987      5991      5989      5987      5990      5989      5987      5991
      5990      5987      5991      5990      5992      5993      5990      5992      5994
      5990      5992      5997      5992      5997      5995      5992      5997      5998
      5992      5997      5999      5993      5992      5994      5993      5992      5997
      5994      5992      5997      5995      5997      5998      5995      5997      5999
      5995      6047      6048      5995      6047      6049      5996      5995      5997
      5996      5995      6047      5997      5995      6047      5997      5999      6000
      5997      5999      6001      5997      5999      6003      5998      5997      5999
      5999      6001      6002      5999      6003      6004      5999      6003      6005
      6000      5999      6001      6000      5999      6003      6001      5999      6003
      6003      6005      6006      6003      6005      6007      6004      6003      6005
      6005      6007      6008      6005      6007      6009      6005      6007      6010
      6006      6005      6007      6007      6010      6011      6007      6010      6012
      6007      6010      6013      6008      6007      6009      6008      6007      6010
      6009      6007      6010      6010      6013      6014      6010      6013      6015
      6010      6013      6016      6011      6010      6012      6011      6010      6013
      6012      6010      6013      6013      6016      6017      6013      6016      6018
      6013      6016      6019      6014      6013      6015      6014      6013      6016
      6015      6013      6016      6016      6019      6020      6016      6019      6021
      6016      6019      6022      6017      6016      6018      6017      6016      6019
      6018      6016      6019      6019      6022      6023      6019      6022      6024
      6019      6022      6025      6020      6019      6021      6020      6019      6022
      6021      6019      6022      6022      6025      6026      6022      6025      6027
      6022      6025      6028      6023      6022      6024      6023      6022      6025
      6024      6022      6025      6025      6028      6029      6025      6028      6030
      6025      6028      6031      6026      6025      6027      6026      6025      6028
      6027      6025      6028      6028      6031      6032      6028      6031      6033
      6028      6031      6034      6029      6028      6030      6029      6028      6031
      6030      6028      6031      6031      6034      6035      6031      6034      6036
      6031      6034      6037      6032      6031      6033      6032      6031      6034
      6033      6031      6034      6034      6037      6038      6034      6037      6039
      6034      6037      6040      6035      6034      6036      6035      6034      6037
      6036      6034      6037      6037      6040      6041      6037      6040      6042
      6037      6040      6043      6038      6037      6039      6038      6037      6040
      6039      6037      6040      6040      6043      6044      6040      6043      6045
      6040      6043      6046      6041      6040      6042      6041      6040      6043
      6042      6040      6043      6044      6043      6045      6044      6043      6046
      6045      6043      6046      6047      6049      6050      6047      6049      6051
      6047      6049      6052      6048      6047      6049      6049      6052      6053
      6049      6052      6054      6049      6052      6055      6050      6049      6051
      6050      6049      6052      6051      6049      6052      6052      6055      6056
      6052      6055      6057      6052      6055      6058      6053      6052      6054
      6053      6052      6055      6054      6052      6055      6055      6058      6059
      6055      6058      6060      6055      6058      6061      6056      6055      6057
      6056      6055      6058      6057      6055      6058      6058      6061      6062
      6058      6061      6063      6058      6061      6064      6059      6058      6060
      6059      6058      6061      6060      6058      6061      6061      6064      6065
      6061      6064      6066      6061      6064      6067      6062      6061      6063
      6062      6061      6064      6063      6061      6064      6064      6067      6068
      6064      6067      6069      6064      6067      6070      6065      6064      6066
      6065      6064      6067      6066      6064      6067      6067      6070      6071
      6067      6070      6072      6067      6070      6073      6068      6067      6069
      6068      6067      6070      6069      6067      6070      6070      6073      6074
      6070      6073      6075      6070      6073      6076      6071      6070      6072
      6071      6070      6073      6072      6070      6073      6073      6076      6077
      6073      6076      6078      6073      6076      6079      6074      6073      6075
      6074      6073      6076      6075      6073      6076      6076      6079      6080
      6076      6079      6081      6076      6079      6082      6077      6076      6078
      6077      6076      6079      6078      6076      6079      6079      6082      6083
      6079      6082      6084      6079      6082      6085      6080      6079      6081
      6080      6079      6082      6081      6079      6082      6082      6085      6086
      6082      6085      6087      6082      6085      6088      6083      6082      6084
      6083      6082      6085      6084      6082      6085      6085      6088      6089
      6085      6088      6090      6085      6088      6091      6086      6085      6087
      6086      6085      6088      6087      6085      6088      6088      6091      6092
      6088      6091      6093      6088      6091      6094      6089      6088      6090
      6089      6088      6091      6090      6088      6091      6091      6094      6095
      6091      6094      6096      6091      6094      6097      6092      6091      6093
      6092      6091      6094      6093      6091      6094      6094      6097      6098
      6094      6097      6099      6094      6097      6100      6095      6094      6096
      6095      6094      6097      6096      6094      6097      6097      6100      6101
      6097      6100      6102      6097      6100      6103      6098      6097      6099
      6098      6097      6100      6099      6097      6100      6100      6103      6104
      6100      6103      6105      6100      6103      6106      6101      6100      6102
      6101      6100      6103      6102      6100      6103      6103      6106      6107
      6103      6106      6108      6103      6106      6109      6104      6103      6105
      6104      6103      6106      6105      6103      6106      6106      6109      6110
      6106      6109      6111      6106      6109      6112      6107      6106      6108
      6107      6106      6109      6108      6106      6109      6109      6112      6113
      6109      6112      6114      6109      6112      6115      6110      6109      6111
      6110      6109      6112      6111      6109      6112      6113      6112      6114
      6113      6112      6115      6114      6112      6115      6116      6117      6118
      6116      6117      6119      6116      6117      6120      6116      6121      6122
      6116      6121      6123      6116      6121      6124      6116      6125      6126
      6116      6125      6127      6116      6125      6128      6116      6129      6130
      6116      6129      6131      6116      6129      6132      6117      6116      6121
      6117      6116      6125      6117      6116      6129      6118      6117      6119
      6118      6117      6120      6119      6117      6120      6121      6116      6125
      6121      6116      6129      6122      6121      6123      6122      6121      6124
      6123      6121      6124      6125      6116      6129      6126      6125      6127
      6126      6125      6128      6127      6125      6128      6129      6132      6133
      6129      6132      6134      6129      6132      6139      6130      6129      6131
      6130      6129      6132      6131      6129      6132      6132      6139      6135
      6133      6132      6134      6133      6132      6139      6134      6132      6139
      6135      6138      6140      6136      6135      6137      6136      6135      6138
      6136      6135      6139      6137      6135      6138      6137      6135      6139
      6138      6135      6139      6138      6140      6141      6138      6140      6142
      6138      6140      6145      6140      6145      6143      6140      6145      6146
      6140      6145      6147      6141      6140      6142      6141      6140      6145
      6142      6140      6145      6143      6145      6146      6143      6145      6147
      6143      6195      6196      6143      6195      6197      6144      6143      6145
      6144      6143      6195      6145      6143      6195      6145      6147      6148
      6145      6147      6149      6145      6147      6151      6146      6145      6147
      6147      6149      6150      6147      6151      6152      6147      6151      6153
      6148      6147      6149      6148      6147      6151      6149      6147      6151
      6151      6153      6154      6151      6153      6155      6152      6151      6153
      6153      6155      6156      6153      6155      6157      6153      6155      6158
      6154      6153      6155      6155      6158      6159      6155      6158      6160
      6155      6158      6161      6156      6155      6157      6156      6155      6158
      6157      6155      6158      6158      6161      6162      6158      6161      6163
      6158      6161      6164      6159      6158      6160      6159      6158      6161
      6160      6158      6161      6161      6164      6165      6161      6164      6166
      6161      6164      6167      6162      6161      6163      6162      6161      6164
      6163      6161      6164      6164      6167      6168      6164      6167      6169
      6164      6167      6170      6165      6164      6166      6165      6164      6167
      6166      6164      6167      6167      6170      6171      6167      6170      6172
      6167      6170      6173      6168      6167      6169      6168      6167      6170
      6169      6167      6170      6170      6173      6174      6170      6173      6175
      6170      6173      6176      6171      6170      6172      6171      6170      6173
      6172      6170      6173      6173      6176      6177      6173      6176      6178
      6173      6176      6179      6174      6173      6175      6174      6173      6176
      6175      6173      6176      6176      6179      6180      6176      6179      6181
      6176      6179      6182      6177      6176      6178      6177      6176      6179
      6178      6176      6179      6179      6182      6183      6179      6182      6184
      6179      6182      6185      6180      6179      6181      6180      6179      6182
      6181      6179      6182      6182      6185      6186      6182      6185      6187
      6182      6185      6188      6183      6182      6184      6183      6182      6185
      6184      6182      6185      6185      6188      6189      6185      6188      6190
      6185      6188      6191      6186      6185      6187      6186      6185      6188
      6187      6185      6188      6188      6191      6192      6188      6191      6193
      6188      6191      6194      6189      6188      6190      6189      6188      6191
      6190      6188      6191      6192      6191      6193      6192      6191      6194
      6193      6191      6194      6195      6197      6198      6195      6197      6199
      6195      6197      6200      6196      6195      6197      6197      6200      6201
      6197      6200      6202      6197      6200      6203      6198      6197      6199
      6198      6197      6200      6199      6197      6200      6200      6203      6204
      6200      6203      6205      6200      6203      6206      6201      6200      6202
      6201      6200      6203      6202      6200      6203      6203      6206      6207
      6203      6206      6208      6203      6206      6209      6204      6203      6205
      6204      6203      6206      6205      6203      6206      6206      6209      6210
      6206      6209      6211      6206      6209      6212      6207      6206      6208
      6207      6206      6209      6208      6206      6209      6209      6212      6213
      6209      6212      6214      6209      6212      6215      6210      6209      6211
      6210      6209      6212      6211      6209      6212      6212      6215      6216
      6212      6215      6217      6212      6215      6218      6213      6212      6214
      6213      6212      6215      6214      6212      6215      6215      6218      6219
      6215      6218      6220      6215      6218      6221      6216      6215      6217
      6216      6215      6218      6217      6215      6218      6218      6221      6222
      6218      6221      6223      6218      6221      6224      6219      6218      6220
      6219      6218      6221      6220      6218      6221      6221      6224      6225
      6221      6224      6226      6221      6224      6227      6222      6221      6223
      6222      6221      6224      6223      6221      6224      6224      6227      6228
      6224      6227      6229      6224      6227      6230      6225      6224      6226
      6225      6224      6227      6226      6224      6227      6227      6230      6231
      6227      6230      6232      6227      6230      6233      6228      6227      6229
      6228      6227      6230      6229      6227      6230      6230      6233      6234
      6230      6233      6235      6230      6233      6236      6231      6230      6232
      6231      6230      6233      6232      6230      6233      6233      6236      6237
      6233      6236      6238      6233      6236      6239      6234      6233      6235
      6234      6233      6236      6235      6233      6236      6236      6239      6240
      6236      6239      6241      6236      6239      6242      6237      6236      6238
      6237      6236      6239      6238      6236      6239      6239      6242      6243
      6239      6242      6244      6239      6242      6245      6240      6239      6241
      6240      6239      6242      6241      6239      6242      6242      6245      6246
      6242      6245      6247      6242      6245      6248      6243      6242      6244
      6243      6242      6245      6244      6242      6245      6245      6248      6249
      6245      6248      6250      6245      6248      6251      6246      6245      6247
      6246      6245      6248      6247      6245      6248      6248      6251      6252
      6248      6251      6253      6248      6251      6254      6249      6248      6250
      6249      6248      6251      6250      6248      6251      6251      6254      6255
      6251      6254      6256      6251      6254      6257      6252      6251      6253
      6252      6251      6254      6253      6251      6254      6254      6257      6258
      6254      6257      6259      6254      6257      6260      6255      6254      6256
      6255      6254      6257      6256      6254      6257      6257      6260      6261
      6257      6260      6262      6257      6260      6263      6258      6257      6259
      6258      6257      6260      6259      6257      6260      6261      6260      6262
      6261      6260      6263      6262      6260      6263      6264      6268      6269
      6264      6268      6270      6264      6268      6271      6265      6264      6266
      6265      6264      6267      6265      6264      6268      6266      6264      6267
      6266      6264      6268      6267      6264      6268      6268      6271      6272
      6268      6271      6273      6268      6271      6278      6269      6268      6270
      6269      6268      6271      6270      6268      6271      6271      6278      6274
      6272      6271      6273      6272      6271      6278      6273      6271      6278
      6274      6277      6279      6275      6274      6276      6275      6274      6277
      6275      6274      6278      6276      6274      6277      6276      6274      6278
      6277      6274      6278      6277      6279      6280      6277      6279      6281
      6277      6279      6282      6279      6282      6283      6279      6282      6284
      6279      6282      6290      6280      6279      6281      6280      6279      6282
      6281      6279      6282      6282      6284      6285      6282      6290      6291
      6282      6290      6292      6282      6290      6293      6283      6282      6284
      6283      6282      6290      6284      6282      6290      6284      6285      6286
      6284      6285      6287      6285      6287      6288      6285      6287      6289
      6285      6287      6299      6286      6285      6287      6287      6299      6300
      6287      6299      6301      6287      6299      6302      6288      6287      6289
      6288      6287      6299      6289      6287      6299      6290      6293      6294
      6291      6290      6292      6291      6290      6293      6292      6290      6293
      6293      6294      6295      6293      6294      6296      6294      6296      6297
      6294      6296      6298      6294      6296      6346      6295      6294      6296
      6296      6346      6347      6296      6346      6348      6296      6346      6349
      6297      6296      6298      6297      6296      6346      6298      6296      6346
      6299      6302      6303      6299      6302      6304      6299      6302      6305
      6300      6299      6301      6300      6299      6302      6301      6299      6302
      6302      6305      6306      6302      6305      6307      6302      6305      6308
      6303      6302      6304      6303      6302      6305      6304      6302      6305
      6305      6308      6309      6305      6308      6310      6305      6308      6311
      6306      6305      6307      6306      6305      6308      6307      6305      6308
      6308      6311      6312      6308      6311      6313      6308      6311      6314
      6309      6308      6310      6309      6308      6311      6310      6308      6311
      6311      6314      6315      6311      6314      6316      6311      6314      6317
      6312      6311      6313      6312      6311      6314      6313      6311      6314
      6314      6317      6318      6314      6317      6319      6315      6314      6316
      6315      6314      6317      6316      6314      6317      6317      6319      6320
      6317      6319      6321      6318      6317      6319      6319      6321      6322
      6319      6321      6323      6319      6321      6324      6320      6319      6321
      6321      6324      6325      6321      6324      6326      6321      6324      6327
      6322      6321      6323      6322      6321      6324      6323      6321      6324
      6324      6327      6328      6324      6327      6329      6324      6327      6330
      6325      6324      6326      6325      6324      6327      6326      6324      6327
      6327      6330      6331      6327      6330      6332      6327      6330      6333
      6328      6327      6329      6328      6327      6330      6329      6327      6330
      6330      6333      6334      6330      6333      6335      6330      6333      6336
      6331      6330      6332      6331      6330      6333      6332      6330      6333
      6333      6336      6337      6333      6336      6338      6333      6336      6339
      6334      6333      6335      6334      6333      6336      6335      6333      6336
      6336      6339      6340      6336      6339      6341      6336      6339      6342
      6337      6336      6338      6337      6336      6339      6338      6336      6339
      6339      6342      6343      6339      6342      6344      6339      6342      6345
      6340      6339      6341      6340      6339      6342      6341      6339      6342
      6343      6342      6344      6343      6342      6345      6344      6342      6345
      6346      6349      6350      6346      6349      6351      6346      6349      6352
      6347      6346      6348      6347      6346      6349      6348      6346      6349
      6349      6352      6353      6349      6352      6354      6349      6352      6355
      6350      6349      6351      6350      6349      6352      6351      6349      6352
      6352      6355      6356      6352      6355      6357      6352      6355      6358
      6353      6352      6354      6353      6352      6355      6354      6352      6355
      6355      6358      6359      6355      6358      6360      6355      6358      6361
      6356      6355      6357      6356      6355      6358      6357      6355      6358
      6358      6361      6362      6358      6361      6363      6358      6361      6364
      6359      6358      6360      6359      6358      6361      6360      6358      6361
      6361      6364      6365      6361      6364      6366      6362      6361      6363
      6362      6361      6364      6363      6361      6364      6364      6366      6367
      6364      6366      6368      6365      6364      6366      6366      6368      6369
      6366      6368      6370      6366      6368      6371      6367      6366      6368
      6368      6371      6372      6368      6371      6373      6368      6371      6374
      6369      6368      6370      6369      6368      6371      6370      6368      6371
      6371      6374      6375      6371      6374      6376      6371      6374      6377
      6372      6371      6373      6372      6371      6374      6373      6371      6374
      6374      6377      6378      6374      6377      6379      6374      6377      6380
      6375      6374      6376      6375      6374      6377      6376      6374      6377
      6377      6380      6381      6377      6380      6382      6377      6380      6383
      6378      6377      6379      6378      6377      6380      6379      6377      6380
      6380      6383      6384      6380      6383      6385      6380      6383      6386
      6381      6380      6382      6381      6380      6383      6382      6380      6383
      6383      6386      6387      6383      6386      6388      6383      6386      6389
      6384      6383      6385      6384      6383      6386      6385      6383      6386
      6386      6389      6390      6386      6389      6391      6386      6389      6392
      6387      6386      6388      6387      6386      6389      6388      6386      6389
      6390      6389      6391      6390      6389      6392      6391      6389      6392
      6393      6394      6395      6393      6394      6396      6393      6394      6409
      6393      6397      6398      6393      6397      6399      6393      6397      6400
      6393      6401      6402      6393      6401      6403      6393      6401      6404
      6393      6405      6406      6393      6405      6407      6393      6405      6408
      6394      6393      6397      6394      6393      6401      6394      6393      6405
      6394      6409      6410      6394      6409      6411      6394      6409      6415
      6395      6394      6396      6395      6394      6409      6396      6394      6409
      6397      6393      6401      6397      6393      6405      6398      6397      6399
      6398      6397      6400      6399      6397      6400      6401      6393      6405
      6402      6401      6403      6402      6401      6404      6403      6401      6404
      6406      6405      6407      6406      6405      6408      6407      6405      6408
      6409      6415      6412      6410      6409      6411      6410      6409      6415
      6411      6409      6415      6412      6416      6417      6413      6412      6414
      6413      6412      6415      6413      6412      6416      6414      6412      6415
      6414      6412      6416      6415      6412      6416      6416      6417      6418
      6416      6417      6419      6416      6417      6420      6417      6420      6421
      6417      6420      6422      6417      6420      6428      6418      6417      6419
      6418      6417      6420      6419      6417      6420      6420      6422      6423
      6420      6428      6429      6420      6428      6430      6420      6428      6431
      6421      6420      6422      6421      6420      6428      6422      6420      6428
      6422      6423      6424      6422      6423      6425      6423      6425      6426
      6423      6425      6427      6423      6425      6437      6424      6423      6425
      6425      6437      6438      6425      6437      6439      6425      6437      6440
      6426      6425      6427      6426      6425      6437      6427      6425      6437
      6428      6431      6432      6429      6428      6430      6429      6428      6431
      6430      6428      6431      6431      6432      6433      6431      6432      6434
      6432      6434      6435      6432      6434      6436      6432      6434      6484
      6433      6432      6434      6434      6484      6485      6434      6484      6486
      6434      6484      6487      6435      6434      6436      6435      6434      6484
      6436      6434      6484      6437      6440      6441      6437      6440      6442
      6437      6440      6443      6438      6437      6439      6438      6437      6440
      6439      6437      6440      6440      6443      6444      6440      6443      6445
      6440      6443      6446      6441      6440      6442      6441      6440      6443
      6442      6440      6443      6443      6446      6447      6443      6446      6448
      6443      6446      6449      6444      6443      6445      6444      6443      6446
      6445      6443      6446      6446      6449      6450      6446      6449      6451
      6446      6449      6452      6447      6446      6448      6447      6446      6449
      6448      6446      6449      6449      6452      6453      6449      6452      6454
      6449      6452      6455      6450      6449      6451      6450      6449      6452
      6451      6449      6452      6452      6455      6456      6452      6455      6457
      6453      6452      6454      6453      6452      6455      6454      6452      6455
      6455      6457      6458      6455      6457      6459      6456      6455      6457
      6457      6459      6460      6457      6459      6461      6457      6459      6462
      6458      6457      6459      6459      6462      6463      6459      6462      6464
      6459      6462      6465      6460      6459      6461      6460      6459      6462
      6461      6459      6462      6462      6465      6466      6462      6465      6467
      6462      6465      6468      6463      6462      6464      6463      6462      6465
      6464      6462      6465      6465      6468      6469      6465      6468      6470
      6465      6468      6471      6466      6465      6467      6466      6465      6468
      6467      6465      6468      6468      6471      6472      6468      6471      6473
      6468      6471      6474      6469      6468      6470      6469      6468      6471
      6470      6468      6471      6471      6474      6475      6471      6474      6476
      6471      6474      6477      6472      6471      6473      6472      6471      6474
      6473      6471      6474      6474      6477      6478      6474      6477      6479
      6474      6477      6480      6475      6474      6476      6475      6474      6477
      6476      6474      6477      6477      6480      6481      6477      6480      6482
      6477      6480      6483      6478      6477      6479      6478      6477      6480
      6479      6477      6480      6481      6480      6482      6481      6480      6483
      6482      6480      6483      6484      6487      6488      6484      6487      6489
      6484      6487      6490      6485      6484      6486      6485      6484      6487
      6486      6484      6487      6487      6490      6491      6487      6490      6492
      6487      6490      6493      6488      6487      6489      6488      6487      6490
      6489      6487      6490      6490      6493      6494      6490      6493      6495
      6490      6493      6496      6491      6490      6492      6491      6490      6493
      6492      6490      6493      6493      6496      6497      6493      6496      6498
      6493      6496      6499      6494      6493      6495      6494      6493      6496
      6495      6493      6496      6496      6499      6500      6496      6499      6501
      6496      6499      6502      6497      6496      6498      6497      6496      6499
      6498      6496      6499      6499      6502      6503      6499      6502      6504
      6500      6499      6501      6500      6499      6502      6501      6499      6502
      6502      6504      6505      6502      6504      6506      6503      6502      6504
      6504      6506      6507      6504      6506      6508      6504      6506      6509
      6505      6504      6506      6506      6509      6510      6506      6509      6511
      6506      6509      6512      6507      6506      6508      6507      6506      6509
      6508      6506      6509      6509      6512      6513      6509      6512      6514
      6509      6512      6515      6510      6509      6511      6510      6509      6512
      6511      6509      6512      6512      6515      6516      6512      6515      6517
      6512      6515      6518      6513      6512      6514      6513      6512      6515
      6514      6512      6515      6515      6518      6519      6515      6518      6520
      6515      6518      6521      6516      6515      6517      6516      6515      6518
      6517      6515      6518      6518      6521      6522      6518      6521      6523
      6518      6521      6524      6519      6518      6520      6519      6518      6521
      6520      6518      6521      6521      6524      6525      6521      6524      6526
      6521      6524      6527      6522      6521      6523      6522      6521      6524
      6523      6521      6524      6524      6527      6528      6524      6527      6529
      6524      6527      6530      6525      6524      6526      6525      6524      6527
      6526      6524      6527      6528      6527      6529      6528      6527      6530
      6529      6527      6530      6531      6532      6533      6531      6532      6534
      6531      6532      6535      6531      6536      6537      6531      6536      6538
      6531      6536      6539      6531      6540      6541      6531      6540      6542
      6531      6540      6543      6531      6544      6545      6531      6544      6546
      6531      6544      6547      6532      6531      6536      6532      6531      6540
      6532      6531      6544      6533      6532      6534      6533      6532      6535
      6534      6532      6535      6536      6531      6540      6536      6531      6544
      6537      6536      6538      6537      6536      6539      6538      6536      6539
      6540      6531      6544      6541      6540      6542      6541      6540      6543
      6542      6540      6543      6544      6547      6548      6544      6547      6549
      6544      6547      6554      6545      6544      6546      6545      6544      6547
      6546      6544      6547      6547      6554      6550      6548      6547      6549
      6548      6547      6554      6549      6547      6554      6550      6553      6555
      6551      6550      6552      6551      6550      6553      6551      6550      6554
      6552      6550      6553      6552      6550      6554      6553      6550      6554
      6553      6555      6556      6553      6555      6557      6553      6555      6560
      6555      6560      6558      6555      6560      6561      6555      6560      6562
      6556      6555      6557      6556      6555      6560      6557      6555      6560
      6558      6560      6561      6558      6560      6562      6558      6610      6611
      6558      6610      6612      6559      6558      6560      6559      6558      6610
      6560      6558      6610      6560      6562      6563      6560      6562      6564
      6560      6562      6566      6561      6560      6562      6562      6564      6565
      6562      6566      6567      6562      6566      6568      6563      6562      6564
      6563      6562      6566      6564      6562      6566      6566      6568      6569
      6566      6568      6570      6567      6566      6568      6568      6570      6571
      6568      6570      6572      6568      6570      6573      6569      6568      6570
      6570      6573      6574      6570      6573      6575      6570      6573      6576
      6571      6570      6572      6571      6570      6573      6572      6570      6573
      6573      6576      6577      6573      6576      6578      6573      6576      6579
      6574      6573      6575      6574      6573      6576      6575      6573      6576
      6576      6579      6580      6576      6579      6581      6576      6579      6582
      6577      6576      6578      6577      6576      6579      6578      6576      6579
      6579      6582      6583      6579      6582      6584      6579      6582      6585
      6580      6579      6581      6580      6579      6582      6581      6579      6582
      6582      6585      6586      6582      6585      6587      6582      6585      6588
      6583      6582      6584      6583      6582      6585      6584      6582      6585
      6585      6588      6589      6585      6588      6590      6585      6588      6591
      6586      6585      6587      6586      6585      6588      6587      6585      6588
      6588      6591      6592      6588      6591      6593      6588      6591      6594
      6589      6588      6590      6589      6588      6591      6590      6588      6591
      6591      6594      6595      6591      6594      6596      6591      6594      6597
      6592      6591      6593      6592      6591      6594      6593      6591      6594
      6594      6597      6598      6594      6597      6599      6594      6597      6600
      6595      6594      6596      6595      6594      6597      6596      6594      6597
      6597      6600      6601      6597      6600      6602      6597      6600      6603
      6598      6597      6599      6598      6597      6600      6599      6597      6600
      6600      6603      6604      6600      6603      6605      6600      6603      6606
      6601      6600      6602      6601      6600      6603      6602      6600      6603
      6603      6606      6607      6603      6606      6608      6603      6606      6609
      6604      6603      6605      6604      6603      6606      6605      6603      6606
      6607      6606      6608      6607      6606      6609      6608      6606      6609
      6610      6612      6613      6610      6612      6614      6610      6612      6615
      6611      6610      6612      6612      6615      6616      6612      6615      6617
      6612      6615      6618      6613      6612      6614      6613      6612      6615
      6614      6612      6615      6615      6618      6619      6615      6618      6620
      6615      6618      6621      6616      6615      6617      6616      6615      6618
      6617      6615      6618      6618      6621      6622      6618      6621      6623
      6618      6621      6624      6619      6618      6620      6619      6618      6621
      6620      6618      6621      6621      6624      6625      6621      6624      6626
      6621      6624      6627      6622      6621      6623      6622      6621      6624
      6623      6621      6624      6624      6627      6628      6624      6627      6629
      6624      6627      6630      6625      6624      6626      6625      6624      6627
      6626      6624      6627      6627      6630      6631      6627      6630      6632
      6627      6630      6633      6628      6627      6629      6628      6627      6630
      6629      6627      6630      6630      6633      6634      6630      6633      6635
      6630      6633      6636      6631      6630      6632      6631      6630      6633
      6632      6630      6633      6633      6636      6637      6633      6636      6638
      6633      6636      6639      6634      6633      6635      6634      6633      6636
      6635      6633      6636      6636      6639      6640      6636      6639      6641
      6636      6639      6642      6637      6636      6638      6637      6636      6639
      6638      6636      6639      6639      6642      6643      6639      6642      6644
      6639      6642      6645      6640      6639      6641      6640      6639      6642
      6641      6639      6642      6642      6645      6646      6642      6645      6647
      6642      6645      6648      6643      6642      6644      6643      6642      6645
      6644      6642      6645      6645      6648      6649      6645      6648      6650
      6645      6648      6651      6646      6645      6647      6646      6645      6648
      6647      6645      6648      6648      6651      6652      6648      6651      6653
      6648      6651      6654      6649      6648      6650      6649      6648      6651
      6650      6648      6651      6651      6654      6655      6651      6654      6656
      6651      6654      6657      6652      6651      6653      6652      6651      6654
      6653      6651      6654      6654      6657      6658      6654      6657      6659
      6654      6657      6660      6655      6654      6656      6655      6654      6657
      6656      6654      6657      6657      6660      6661      6657      6660      6662
      6657      6660      6663      6658      6657      6659      6658      6657      6660
      6659      6657      6660      6660      6663      6664      6660      6663      6665
      6660      6663      6666      6661      6660      6662      6661      6660      6663
      6662      6660      6663      6663      6666      6667      6663      6666      6668
      6663      6666      6669      6664      6663      6665      6664      6663      6666
      6665      6663      6666      6666      6669      6670      6666      6669      6671
      6666      6669      6672      6667      6666      6668      6667      6666      6669
      6668      6666      6669      6669      6672      6673      6669      6672      6674
      6669      6672      6675      6670      6669      6671      6670      6669      6672
      6671      6669      6672      6672      6675      6676      6672      6675      6677
      6672      6675      6678      6673      6672      6674      6673      6672      6675
      6674      6672      6675      6676      6675      6677      6676      6675      6678
      6677      6675      6678      6679      6680      6681      6679      6680      6682
      6679      6680      6695      6679      6683      6684      6679      6683      6685
      6679      6683      6686      6679      6687      6688      6679      6687      6689
      6679      6687      6690      6679      6691      6692      6679      6691      6693
      6679      6691      6694      6680      6679      6683      6680      6679      6687
      6680      6679      6691      6680      6695      6696      6680      6695      6697
      6680      6695      6701      6681      6680      6682      6681      6680      6695
      6682      6680      6695      6683      6679      6687      6683      6679      6691
      6684      6683      6685      6684      6683      6686      6685      6683      6686
      6687      6679      6691      6688      6687      6689      6688      6687      6690
      6689      6687      6690      6692      6691      6693      6692      6691      6694
      6693      6691      6694      6695      6701      6698      6696      6695      6697
      6696      6695      6701      6697      6695      6701      6698      6702      6703
      6699      6698      6700      6699      6698      6701      6699      6698      6702
      6700      6698      6701      6700      6698      6702      6701      6698      6702
      6702      6703      6704      6702      6703      6705      6702      6703      6706
      6703      6706      6707      6703      6706      6708      6703      6706      6714
      6704      6703      6705      6704      6703      6706      6705      6703      6706
      6706      6708      6709      6706      6714      6715      6706      6714      6716
      6706      6714      6717      6707      6706      6708      6707      6706      6714
      6708      6706      6714      6708      6709      6710      6708      6709      6711
      6709      6711      6712      6709      6711      6713      6709      6711      6723
      6710      6709      6711      6711      6723      6724      6711      6723      6725
      6711      6723      6726      6712      6711      6713      6712      6711      6723
      6713      6711      6723      6714      6717      6718      6715      6714      6716
      6715      6714      6717      6716      6714      6717      6717      6718      6719
      6717      6718      6720      6718      6720      6721      6718      6720      6722
      6718      6720      6770      6719      6718      6720      6720      6770      6771
      6720      6770      6772      6720      6770      6773      6721      6720      6722
      6721      6720      6770      6722      6720      6770      6723      6726      6727
      6723      6726      6728      6723      6726      6729      6724      6723      6725
      6724      6723      6726      6725      6723      6726      6726      6729      6730
      6726      6729      6731      6726      6729      6732      6727      6726      6728
      6727      6726      6729      6728      6726      6729      6729      6732      6733
      6729      6732      6734      6729      6732      6735      6730      6729      6731
      6730      6729      6732      6731      6729      6732      6732      6735      6736
      6732      6735      6737      6732      6735      6738      6733      6732      6734
      6733      6732      6735      6734      6732      6735      6735      6738      6739
      6735      6738      6740      6735      6738      6741      6736      6735      6737
      6736      6735      6738      6737      6735      6738      6738      6741      6742
      6738      6741      6743      6739      6738      6740      6739      6738      6741
      6740      6738      6741      6741      6743      6744      6741      6743      6745
      6742      6741      6743      6743      6745      6746      6743      6745      6747
      6743      6745      6748      6744      6743      6745      6745      6748      6749
      6745      6748      6750      6745      6748      6751      6746      6745      6747
      6746      6745      6748      6747      6745      6748      6748      6751      6752
      6748      6751      6753      6748      6751      6754      6749      6748      6750
      6749      6748      6751      6750      6748      6751      6751      6754      6755
      6751      6754      6756      6751      6754      6757      6752      6751      6753
      6752      6751      6754      6753      6751      6754      6754      6757      6758
      6754      6757      6759      6754      6757      6760      6755      6754      6756
      6755      6754      6757      6756      6754      6757      6757      6760      6761
      6757      6760      6762      6757      6760      6763      6758      6757      6759
      6758      6757      6760      6759      6757      6760      6760      6763      6764
      6760      6763      6765      6760      6763      6766      6761      6760      6762
      6761      6760      6763      6762      6760      6763      6763      6766      6767
      6763      6766      6768      6763      6766      6769      6764      6763      6765
      6764      6763      6766      6765      6763      6766      6767      6766      6768
      6767      6766      6769      6768      6766      6769      6770      6773      6774
      6770      6773      6775      6770      6773      6776      6771      6770      6772
      6771      6770      6773      6772      6770      6773      6773      6776      6777
      6773      6776      6778      6773      6776      6779      6774      6773      6775
      6774      6773      6776      6775      6773      6776      6776      6779      6780
      6776      6779      6781      6776      6779      6782      6777      6776      6778
      6777      6776      6779      6778      6776      6779      6779      6782      6783
      6779      6782      6784      6779      6782      6785      6780      6779      6781
      6780      6779      6782      6781      6779      6782      6782      6785      6786
      6782      6785      6787      6782      6785      6788      6783      6782      6784
      6783      6782      6785      6784      6782      6785      6785      6788      6789
      6785      6788      6790      6786      6785      6787      6786      6785      6788
      6787      6785      6788      6788      6790      6791      6788      6790      6792
      6789      6788      6790      6790      6792      6793      6790      6792      6794
      6790      6792      6795      6791      6790      6792      6792      6795      6796
      6792      6795      6797      6792      6795      6798      6793      6792      6794
      6793      6792      6795      6794      6792      6795      6795      6798      6799
      6795      6798      6800      6795      6798      6801      6796      6795      6797
      6796      6795      6798      6797      6795      6798      6798      6801      6802
      6798      6801      6803      6798      6801      6804      6799      6798      6800
      6799      6798      6801      6800      6798      6801      6801      6804      6805
      6801      6804      6806      6801      6804      6807      6802      6801      6803
      6802      6801      6804      6803      6801      6804      6804      6807      6808
      6804      6807      6809      6804      6807      6810      6805      6804      6806
      6805      6804      6807      6806      6804      6807      6807      6810      6811
      6807      6810      6812      6807      6810      6813      6808      6807      6809
      6808      6807      6810      6809      6807      6810      6810      6813      6814
      6810      6813      6815      6810      6813      6816      6811      6810      6812
      6811      6810      6813      6812      6810      6813      6814      6813      6815
      6814      6813      6816      6815      6813      6816      6817      6819      6820
      6817      6821      6822      6817      6821      6823      6817      6821      6824
      6817      6863      6860      6817      6863      6864      6817      6863      6865
      6818      6817      6819      6818      6817      6821      6818      6817      6863
      6819      6817      6821      6819      6817      6863      6821      6817      6863
      6821      6824      6825      6821      6824      6855      6822      6821      6823
      6822      6821      6824      6823      6821      6824      6824      6825      6826
      6824      6825      6827      6824      6855      6853      6824      6855      6856
      6824      6855      6860      6825      6824      6855      6825      6827      6828
      6825      6827      6829      6825      6827      6830      6826      6825      6827
      6827      6830      6831      6827      6830      6832      6827      6830      6853
      6828      6827      6829      6828      6827      6830      6829      6827      6830
      6830      6832      6833      6830      6832      6834      6830      6832      6842
      6830      6853      6850      6830      6853      6854      6830      6853      6855
      6831      6830      6832      6831      6830      6853      6832      6830      6853
      6832      6834      6835      6832      6834      6836      6832      6834      6837
      6832      6842      6840      6832      6842      6843      6832      6842      6847
      6833      6832      6834      6833      6832      6842      6834      6832      6842
      6834      6837      6838      6834      6837      6839      6834      6837      6840
      6835      6834      6836      6835      6834      6837      6836      6834      6837
      6837      6840      6841      6837      6840      6842      6837      6840      6866
      6838      6837      6839      6838      6837      6840      6839      6837      6840
      6840      6842      6843      6840      6842      6847      6840      6866      6867
      6840      6866      6868      6840      6866      6872      6841      6840      6842
      6841      6840      6866      6842      6840      6866      6842      6843      6844
      6842      6843      6845      6842      6843      6846      6842      6847      6848
      6842      6847      6849      6842      6847      6850      6843      6842      6847
      6844      6843      6845      6844      6843      6846      6845      6843      6846
      6847      6850      6851      6847      6850      6852      6847      6850      6853
      6848      6847      6849      6848      6847      6850      6849      6847      6850
      6850      6853      6854      6850      6853      6855      6851      6850      6852
      6851      6850      6853      6852      6850      6853      6853      6855      6856
      6853      6855      6860      6854      6853      6855      6855      6856      6857
      6855      6856      6858      6855      6856      6859      6855      6860      6861
      6855      6860      6862      6855      6860      6863      6856      6855      6860
      6857      6856      6858      6857      6856      6859      6858      6856      6859
      6860      6863      6864      6860      6863      6865      6861      6860      6862
      6861      6860      6863      6862      6860      6863      6864      6863      6865
      6866      6868      6869      6866      6868      6870      6866      6868      6871
      6866      6872      6873      6866      6872      6874      6866      6872      6875
      6867      6866      6868      6867      6866      6872      6868      6866      6872
      6869      6868      6870      6869      6868      6871      6870      6868      6871
      6872      6875      6876      6872      6875      6877      6872      6875      6878
      6873      6872      6874      6873      6872      6875      6874      6872      6875
      6875      6878      6879      6875      6878      6880      6875      6878      6881
      6876      6875      6877      6876      6875      6878      6877      6875      6878
      6878      6881      6882      6878      6881      6883      6878      6881      6887
      6879      6878      6880      6879      6878      6881      6880      6878      6881
      6881      6883      6884      6881      6883      6885      6881      6883      6886
      6881      6887      6888      6881      6887      6889      6881      6887      6890
      6882      6881      6883      6882      6881      6887      6883      6881      6887
      6884      6883      6885      6884      6883      6886      6885      6883      6886
      6888      6887      6889      6888      6887      6890      6889      6887      6890
      6891      6895      6896      6891      6895      6897      6891      6895      6898
      6892      6891      6893      6892      6891      6894      6892      6891      6895
      6893      6891      6894      6893      6891      6895      6894      6891      6895
      6895      6898      6899      6895      6898      6900      6895      6898      6905
      6896      6895      6897      6896      6895      6898      6897      6895      6898
      6898      6905      6901      6899      6898      6900      6899      6898      6905
      6900      6898      6905      6901      6904      6906      6902      6901      6903
      6902      6901      6904      6902      6901      6905      6903      6901      6904
      6903      6901      6905      6904      6901      6905      6904      6906      6907
      6904      6906      6908      6904      6906      6909      6906      6909      6910
      6906      6909      6911      6906      6909      6917      6907      6906      6908
      6907      6906      6909      6908      6906      6909      6909      6911      6912
      6909      6917      6918      6909      6917      6919      6909      6917      6920
      6910      6909      6911      6910      6909      6917      6911      6909      6917
      6911      6912      6913      6911      6912      6914      6912      6914      6915
      6912      6914      6916      6912      6914      6926      6913      6912      6914
      6914      6926      6927      6914      6926      6928      6914      6926      6929
      6915      6914      6916      6915      6914      6926      6916      6914      6926
      6917      6920      6921      6918      6917      6919      6918      6917      6920
      6919      6917      6920      6920      6921      6922      6920      6921      6923
      6921      6923      6924      6921      6923      6925      6921      6923      6973
      6922      6921      6923      6923      6973      6974      6923      6973      6975
      6923      6973      6976      6924      6923      6925      6924      6923      6973
      6925      6923      6973      6926      6929      6930      6926      6929      6931
      6926      6929      6932      6927      6926      6928      6927      6926      6929
      6928      6926      6929      6929      6932      6933      6929      6932      6934
      6929      6932      6935      6930      6929      6931      6930      6929      6932
      6931      6929      6932      6932      6935      6936      6932      6935      6937
      6932      6935      6938      6933      6932      6934      6933      6932      6935
      6934      6932      6935      6935      6938      6939      6935      6938      6940
      6935      6938      6941      6936      6935      6937      6936      6935      6938
      6937      6935      6938      6938      6941      6942      6938      6941      6943
      6938      6941      6944      6939      6938      6940      6939      6938      6941
      6940      6938      6941      6941      6944      6945      6941      6944      6946
      6942      6941      6943      6942      6941      6944      6943      6941      6944
      6944      6946      6947      6944      6946      6948      6945      6944      6946
      6946      6948      6949      6946      6948      6950      6946      6948      6951
      6947      6946      6948      6948      6951      6952      6948      6951      6953
      6948      6951      6954      6949      6948      6950      6949      6948      6951
      6950      6948      6951      6951      6954      6955      6951      6954      6956
      6951      6954      6957      6952      6951      6953      6952      6951      6954
      6953      6951      6954      6954      6957      6958      6954      6957      6959
      6954      6957      6960      6955      6954      6956      6955      6954      6957
      6956      6954      6957      6957      6960      6961      6957      6960      6962
      6957      6960      6963      6958      6957      6959      6958      6957      6960
      6959      6957      6960      6960      6963      6964      6960      6963      6965
      6960      6963      6966      6961      6960      6962      6961      6960      6963
      6962      6960      6963      6963      6966      6967      6963      6966      6968
      6963      6966      6969      6964      6963      6965      6964      6963      6966
      6965      6963      6966      6966      6969      6970      6966      6969      6971
      6966      6969      6972      6967      6966      6968      6967      6966      6969
      6968      6966      6969      6970      6969      6971      6970      6969      6972
      6971      6969      6972      6973      6976      6977      6973      6976      6978
      6973      6976      6979      6974      6973      6975      6974      6973      6976
      6975      6973      6976      6976      6979      6980      6976      6979      6981
      6976      6979      6982      6977      6976      6978      6977      6976      6979
      6978      6976      6979      6979      6982      6983      6979      6982      6984
      6979      6982      6985      6980      6979      6981      6980      6979      6982
      6981      6979      6982      6982      6985      6986      6982      6985      6987
      6982      6985      6988      6983      6982      6984      6983      6982      6985
      6984      6982      6985      6985      6988      6989      6985      6988      6990
      6985      6988      6991      6986      6985      6987      6986      6985      6988
      6987      6985      6988      6988      6991      6992      6988      6991      6993
      6989      6988      6990      6989      6988      6991      6990      6988      6991
      6991      6993      6994      6991      6993      6995      6992      6991      6993
      6993      6995      6996      6993      6995      6997      6993      6995      6998
      6994      6993      6995      6995      6998      6999      6995      6998      7000
      6995      6998      7001      6996      6995      6997      6996      6995      6998
      6997      6995      6998      6998      7001      7002      6998      7001      7003
      6998      7001      7004      6999      6998      7000      6999      6998      7001
      7000      6998      7001      7001      7004      7005      7001      7004      7006
      7001      7004      7007      7002      7001      7003      7002      7001      7004
      7003      7001      7004      7004      7007      7008      7004      7007      7009
      7004      7007      7010      7005      7004      7006      7005      7004      7007
      7006      7004      7007      7007      7010      7011      7007      7010      7012
      7007      7010      7013      7008      7007      7009      7008      7007      7010
      7009      7007      7010      7010      7013      7014      7010      7013      7015
      7010      7013      7016      7011      7010      7012      7011      7010      7013
      7012      7010      7013      7013      7016      7017      7013      7016      7018
      7013      7016      7019      7014      7013      7015      7014      7013      7016
      7015      7013      7016      7017      7016      7018      7017      7016      7019
      7018      7016      7019      7020      7022      7023      7020      7024      7025
      7020      7024      7026      7020      7024      7027      7020      7066      7063
      7020      7066      7067      7020      7066      7068      7021      7020      7022
      7021      7020      7024      7021      7020      7066      7022      7020      7024
      7022      7020      7066      7024      7020      7066      7024      7027      7028
      7024      7027      7058      7025      7024      7026      7025      7024      7027
      7026      7024      7027      7027      7028      7029      7027      7028      7030
      7027      7058      7056      7027      7058      7059      7027      7058      7063
      7028      7027      7058      7028      7030      7031      7028      7030      7032
      7028      7030      7033      7029      7028      7030      7030      7033      7034
      7030      7033      7035      7030      7033      7056      7031      7030      7032
      7031      7030      7033      7032      7030      7033      7033      7035      7036
      7033      7035      7037      7033      7035      7045      7033      7056      7053
      7033      7056      7057      7033      7056      7058      7034      7033      7035
      7034      7033      7056      7035      7033      7056      7035      7037      7038
      7035      7037      7039      7035      7037      7040      7035      7045      7043
      7035      7045      7046      7035      7045      7050      7036      7035      7037
      7036      7035      7045      7037      7035      7045      7037      7040      7041
      7037      7040      7042      7037      7040      7043      7038      7037      7039
      7038      7037      7040      7039      7037      7040      7040      7043      7044
      7040      7043      7045      7040      7043      7069      7041      7040      7042
      7041      7040      7043      7042      7040      7043      7043      7045      7046
      7043      7045      7050      7043      7069      7070      7043      7069      7071
      7043      7069      7075      7044      7043      7045      7044      7043      7069
      7045      7043      7069      7045      7046      7047      7045      7046      7048
      7045      7046      7049      7045      7050      7051      7045      7050      7052
      7045      7050      7053      7046      7045      7050      7047      7046      7048
      7047      7046      7049      7048      7046      7049      7050      7053      7054
      7050      7053      7055      7050      7053      7056      7051      7050      7052
      7051      7050      7053      7052      7050      7053      7053      7056      7057
      7053      7056      7058      7054      7053      7055      7054      7053      7056
      7055      7053      7056      7056      7058      7059      7056      7058      7063
      7057      7056      7058      7058      7059      7060      7058      7059      7061
      7058      7059      7062      7058      7063      7064      7058      7063      7065
      7058      7063      7066      7059      7058      7063      7060      7059      7061
      7060      7059      7062      7061      7059      7062      7063      7066      7067
      7063      7066      7068      7064      7063      7065      7064      7063      7066
      7065      7063      7066      7067      7066      7068      7069      7071      7072
      7069      7071      7073      7069      7071      7074      7069      7075      7076
      7069      7075      7077      7069      7075      7078      7070      7069      7071
      7070      7069      7075      7071      7069      7075      7072      7071      7073
      7072      7071      7074      7073      7071      7074      7075      7078      7079
      7075      7078      7080      7075      7078      7081      7076      7075      7077
      7076      7075      7078      7077      7075      7078      7078      7081      7082
      7078      7081      7083      7078      7081      7084      7079      7078      7080
      7079      7078      7081      7080      7078      7081      7081      7084      7085
      7081      7084      7086      7081      7084      7090      7082      7081      7083
      7082      7081      7084      7083      7081      7084      7084      7086      7087
      7084      7086      7088      7084      7086      7089      7084      7090      7091
      7084      7090      7092      7084      7090      7093      7085      7084      7086
      7085      7084      7090      7086      7084      7090      7087      7086      7088
      7087      7086      7089      7088      7086      7089      7091      7090      7092
      7091      7090      7093      7092      7090      7093      7094      7095      7096
      7094      7095      7097      7094      7095      7110      7094      7098      7099
      7094      7098      7100      7094      7098      7101      7094      7102      7103
      7094      7102      7104      7094      7102      7105      7094      7106      7107
      7094      7106      7108      7094      7106      7109      7095      7094      7098
      7095      7094      7102      7095      7094      7106      7095      7110      7111
      7095      7110      7112      7095      7110      7116      7096      7095      7097
      7096      7095      7110      7097      7095      7110      7098      7094      7102
      7098      7094      7106      7099      7098      7100      7099      7098      7101
      7100      7098      7101      7102      7094      7106      7103      7102      7104
      7103      7102      7105      7104      7102      7105      7107      7106      7108
      7107      7106      7109      7108      7106      7109      7110      7116      7113
      7111      7110      7112      7111      7110      7116      7112      7110      7116
      7113      7117      7118      7114      7113      7115      7114      7113      7116
      7114      7113      7117      7115      7113      7116      7115      7113      7117
      7116      7113      7117      7117      7118      7119      7117      7118      7120
      7117      7118      7121      7118      7121      7122      7118      7121      7123
      7118      7121      7129      7119      7118      7120      7119      7118      7121
      7120      7118      7121      7121      7123      7124      7121      7129      7130
      7121      7129      7131      7121      7129      7132      7122      7121      7123
      7122      7121      7129      7123      7121      7129      7123      7124      7125
      7123      7124      7126      7124      7126      7127      7124      7126      7128
      7124      7126      7138      7125      7124      7126      7126      7138      7139
      7126      7138      7140      7126      7138      7141      7127      7126      7128
      7127      7126      7138      7128      7126      7138      7129      7132      7133
      7130      7129      7131      7130      7129      7132      7131      7129      7132
      7132      7133      7134      7132      7133      7135      7133      7135      7136
      7133      7135      7137      7133      7135      7185      7134      7133      7135
      7135      7185      7186      7135      7185      7187      7135      7185      7188
      7136      7135      7137      7136      7135      7185      7137      7135      7185
      7138      7141      7142      7138      7141      7143      7138      7141      7144
      7139      7138      7140      7139      7138      7141      7140      7138      7141
      7141      7144      7145      7141      7144      7146      7141      7144      7147
      7142      7141      7143      7142      7141      7144      7143      7141      7144
      7144      7147      7148      7144      7147      7149      7144      7147      7150
      7145      7144      7146      7145      7144      7147      7146      7144      7147
      7147      7150      7151      7147      7150      7152      7147      7150      7153
      7148      7147      7149      7148      7147      7150      7149      7147      7150
      7150      7153      7154      7150      7153      7155      7150      7153      7156
      7151      7150      7152      7151      7150      7153      7152      7150      7153
      7153      7156      7157      7153      7156      7158      7154      7153      7155
      7154      7153      7156      7155      7153      7156      7156      7158      7159
      7156      7158      7160      7157      7156      7158      7158      7160      7161
      7158      7160      7162      7158      7160      7163      7159      7158      7160
      7160      7163      7164      7160      7163      7165      7160      7163      7166
      7161      7160      7162      7161      7160      7163      7162      7160      7163
      7163      7166      7167      7163      7166      7168      7163      7166      7169
      7164      7163      7165      7164      7163      7166      7165      7163      7166
      7166      7169      7170      7166      7169      7171      7166      7169      7172
      7167      7166      7168      7167      7166      7169      7168      7166      7169
      7169      7172      7173      7169      7172      7174      7169      7172      7175
      7170      7169      7171      7170      7169      7172      7171      7169      7172
      7172      7175      7176      7172      7175      7177      7172      7175      7178
      7173      7172      7174      7173      7172      7175      7174      7172      7175
      7175      7178      7179      7175      7178      7180      7175      7178      7181
      7176      7175      7177      7176      7175      7178      7177      7175      7178
      7178      7181      7182      7178      7181      7183      7178      7181      7184
      7179      7178      7180      7179      7178      7181      7180      7178      7181
      7182      7181      7183      7182      7181      7184      7183      7181      7184
      7185      7188      7189      7185      7188      7190      7185      7188      7191
      7186      7185      7187      7186      7185      7188      7187      7185      7188
      7188      7191      7192      7188      7191      7193      7188      7191      7194
      7189      7188      7190      7189      7188      7191      7190      7188      7191
      7191      7194      7195      7191      7194      7196      7191      7194      7197
      7192      7191      7193      7192      7191      7194      7193      7191      7194
      7194      7197      7198      7194      7197      7199      7194      7197      7200
      7195      7194      7196      7195      7194      7197      7196      7194      7197
      7197      7200      7201      7197      7200      7202      7197      7200      7203
      7198      7197      7199      7198      7197      7200      7199      7197      7200
      7200      7203      7204      7200      7203      7205      7201      7200      7202
      7201      7200      7203      7202      7200      7203      7203      7205      7206
      7203      7205      7207      7204      7203      7205      7205      7207      7208
      7205      7207      7209      7205      7207      7210      7206      7205      7207
      7207      7210      7211      7207      7210      7212      7207      7210      7213
      7208      7207      7209      7208      7207      7210      7209      7207      7210
      7210      7213      7214      7210      7213      7215      7210      7213      7216
      7211      7210      7212      7211      7210      7213      7212      7210      7213
      7213      7216      7217      7213      7216      7218      7213      7216      7219
      7214      7213      7215      7214      7213      7216      7215      7213      7216
      7216      7219      7220      7216      7219      7221      7216      7219      7222
      7217      7216      7218      7217      7216      7219      7218      7216      7219
      7219      7222      7223      7219      7222      7224      7219      7222      7225
      7220      7219      7221      7220      7219      7222      7221      7219      7222
      7222      7225      7226      7222      7225      7227      7222      7225      7228
      7223      7222      7224      7223      7222      7225      7224      7222      7225
      7225      7228      7229      7225      7228      7230      7225      7228      7231
      7226      7225      7227      7226      7225      7228      7227      7225      7228
      7229      7228      7230      7229      7228      7231      7230      7228      7231
      7232      7233      7234      7232      7233      7235      7232      7233      7236
      7232      7237      7238      7232      7237      7239      7232      7237      7240
      7232      7241      7242      7232      7241      7243      7232      7241      7244
      7232      7245      7246      7232      7245      7247      7232      7245      7248
      7233      7232      7237      7233      7232      7241      7233      7232      7245
      7234      7233      7235      7234      7233      7236      7235      7233      7236
      7237      7232      7241      7237      7232      7245      7238      7237      7239
      7238      7237      7240      7239      7237      7240      7241      7232      7245
      7242      7241      7243      7242      7241      7244      7243      7241      7244
      7245      7248      7249      7245      7248      7250      7245      7248      7255
      7246      7245      7247      7246      7245      7248      7247      7245      7248
      7248      7255      7251      7249      7248      7250      7249      7248      7255
      7250      7248      7255      7251      7254      7256      7252      7251      7253
      7252      7251      7254      7252      7251      7255      7253      7251      7254
      7253      7251      7255      7254      7251      7255      7254      7256      7257
      7254      7256      7258      7254      7256      7261      7256      7261      7259
      7256      7261      7262      7256      7261      7263      7257      7256      7258
      7257      7256      7261      7258      7256      7261      7259      7261      7262
      7259      7261      7263      7259      7311      7312      7259      7311      7313
      7260      7259      7261      7260      7259      7311      7261      7259      7311
      7261      7263      7264      7261      7263      7265      7261      7263      7267
      7262      7261      7263      7263      7265      7266      7263      7267      7268
      7263      7267      7269      7264      7263      7265      7264      7263      7267
      7265      7263      7267      7267      7269      7270      7267      7269      7271
      7268      7267      7269      7269      7271      7272      7269      7271      7273
      7269      7271      7274      7270      7269      7271      7271      7274      7275
      7271      7274      7276      7271      7274      7277      7272      7271      7273
      7272      7271      7274      7273      7271      7274      7274      7277      7278
      7274      7277      7279      7274      7277      7280      7275      7274      7276
      7275      7274      7277      7276      7274      7277      7277      7280      7281
      7277      7280      7282      7277      7280      7283      7278      7277      7279
      7278      7277      7280      7279      7277      7280      7280      7283      7284
      7280      7283      7285      7280      7283      7286      7281      7280      7282
      7281      7280      7283      7282      7280      7283      7283      7286      7287
      7283      7286      7288      7283      7286      7289      7284      7283      7285
      7284      7283      7286      7285      7283      7286      7286      7289      7290
      7286      7289      7291      7286      7289      7292      7287      7286      7288
      7287      7286      7289      7288      7286      7289      7289      7292      7293
      7289      7292      7294      7289      7292      7295      7290      7289      7291
      7290      7289      7292      7291      7289      7292      7292      7295      7296
      7292      7295      7297      7292      7295      7298      7293      7292      7294
      7293      7292      7295      7294      7292      7295      7295      7298      7299
      7295      7298      7300      7295      7298      7301      7296      7295      7297
      7296      7295      7298      7297      7295      7298      7298      7301      7302
      7298      7301      7303      7298      7301      7304      7299      7298      7300
      7299      7298      7301      7300      7298      7301      7301      7304      7305
      7301      7304      7306      7301      7304      7307      7302      7301      7303
      7302      7301      7304      7303      7301      7304      7304      7307      7308
      7304      7307      7309      7304      7307      7310      7305      7304      7306
      7305      7304      7307      7306      7304      7307      7308      7307      7309
      7308      7307      7310      7309      7307      7310      7311      7313      7314
      7311      7313      7315      7311      7313      7316      7312      7311      7313
      7313      7316      7317      7313      7316      7318      7313      7316      7319
      7314      7313      7315      7314      7313      7316      7315      7313      7316
      7316      7319      7320      7316      7319      7321      7316      7319      7322
      7317      7316      7318      7317      7316      7319      7318      7316      7319
      7319      7322      7323      7319      7322      7324      7319      7322      7325
      7320      7319      7321      7320      7319      7322      7321      7319      7322
      7322      7325      7326      7322      7325      7327      7322      7325      7328
      7323      7322      7324      7323      7322      7325      7324      7322      7325
      7325      7328      7329      7325      7328      7330      7325      7328      7331
      7326      7325      7327      7326      7325      7328      7327      7325      7328
      7328      7331      7332      7328      7331      7333      7328      7331      7334
      7329      7328      7330      7329      7328      7331      7330      7328      7331
      7331      7334      7335      7331      7334      7336      7331      7334      7337
      7332      7331      7333      7332      7331      7334      7333      7331      7334
      7334      7337      7338      7334      7337      7339      7334      7337      7340
      7335      7334      7336      7335      7334      7337      7336      7334      7337
      7337      7340      7341      7337      7340      7342      7337      7340      7343
      7338      7337      7339      7338      7337      7340      7339      7337      7340
      7340      7343      7344      7340      7343      7345      7340      7343      7346
      7341      7340      7342      7341      7340      7343      7342      7340      7343
      7343      7346      7347      7343      7346      7348      7343      7346      7349
      7344      7343      7345      7344      7343      7346      7345      7343      7346
      7346      7349      7350      7346      7349      7351      7346      7349      7352
      7347      7346      7348      7347      7346      7349      7348      7346      7349
      7349      7352      7353      7349      7352      7354      7349      7352      7355
      7350      7349      7351      7350      7349      7352      7351      7349      7352
      7352      7355      7356      7352      7355      7357      7352      7355      7358
      7353      7352      7354      7353      7352      7355      7354      7352      7355
      7355      7358      7359      7355      7358      7360      7355      7358      7361
      7356      7355      7357      7356      7355      7358      7357      7355      7358
      7358      7361      7362      7358      7361      7363      7358      7361      7364
      7359      7358      7360      7359      7358      7361      7360      7358      7361
      7361      7364      7365      7361      7364      7366      7361      7364      7367
      7362      7361      7363      7362      7361      7364      7363      7361      7364
      7364      7367      7368      7364      7367      7369      7364      7367      7370
      7365      7364      7366      7365      7364      7367      7366      7364      7367
      7367      7370      7371      7367      7370      7372      7367      7370      7373
      7368      7367      7369      7368      7367      7370      7369      7367      7370
      7370      7373      7374      7370      7373      7375      7370      7373      7376
      7371      7370      7372      7371      7370      7373      7372      7370      7373
      7373      7376      7377      7373      7376      7378      7373      7376      7379
      7374      7373      7375      7374      7373      7376      7375      7373      7376
      7377      7376      7378      7377      7376      7379      7378      7376      7379
      7380      7381      7382      7380      7381      7383      7380      7381      7384
      7380      7385      7386      7380      7385      7387      7380      7385      7388
      7380      7389      7390      7380      7389      7391      7380      7389      7392
      7380      7393      7394      7380      7393      7395      7380      7393      7396
      7381      7380      7385      7381      7380      7389      7381      7380      7393
      7382      7381      7383      7382      7381      7384      7383      7381      7384
      7385      7380      7389      7385      7380      7393      7386      7385      7387
      7386      7385      7388      7387      7385      7388      7389      7380      7393
      7390      7389      7391      7390      7389      7392      7391      7389      7392
      7393      7396      7397      7393      7396      7398      7393      7396      7403
      7394      7393      7395      7394      7393      7396      7395      7393      7396
      7396      7403      7399      7397      7396      7398      7397      7396      7403
      7398      7396      7403      7399      7402      7404      7400      7399      7401
      7400      7399      7402      7400      7399      7403      7401      7399      7402
      7401      7399      7403      7402      7399      7403      7402      7404      7405
      7402      7404      7406      7402      7404      7409      7404      7409      7407
      7404      7409      7410      7404      7409      7411      7405      7404      7406
      7405      7404      7409      7406      7404      7409      7407      7409      7410
      7407      7409      7411      7407      7459      7460      7407      7459      7461
      7408      7407      7409      7408      7407      7459      7409      7407      7459
      7409      7411      7412      7409      7411      7413      7409      7411      7415
      7410      7409      7411      7411      7413      7414      7411      7415      7416
      7411      7415      7417      7412      7411      7413      7412      7411      7415
      7413      7411      7415      7415      7417      7418      7415      7417      7419
      7416      7415      7417      7417      7419      7420      7417      7419      7421
      7417      7419      7422      7418      7417      7419      7419      7422      7423
      7419      7422      7424      7419      7422      7425      7420      7419      7421
      7420      7419      7422      7421      7419      7422      7422      7425      7426
      7422      7425      7427      7422      7425      7428      7423      7422      7424
      7423      7422      7425      7424      7422      7425      7425      7428      7429
      7425      7428      7430      7425      7428      7431      7426      7425      7427
      7426      7425      7428      7427      7425      7428      7428      7431      7432
      7428      7431      7433      7428      7431      7434      7429      7428      7430
      7429      7428      7431      7430      7428      7431      7431      7434      7435
      7431      7434      7436      7431      7434      7437      7432      7431      7433
      7432      7431      7434      7433      7431      7434      7434      7437      7438
      7434      7437      7439      7434      7437      7440      7435      7434      7436
      7435      7434      7437      7436      7434      7437      7437      7440      7441
      7437      7440      7442      7437      7440      7443      7438      7437      7439
      7438      7437      7440      7439      7437      7440      7440      7443      7444
      7440      7443      7445      7440      7443      7446      7441      7440      7442
      7441      7440      7443      7442      7440      7443      7443      7446      7447
      7443      7446      7448      7443      7446      7449      7444      7443      7445
      7444      7443      7446      7445      7443      7446      7446      7449      7450
      7446      7449      7451      7446      7449      7452      7447      7446      7448
      7447      7446      7449      7448      7446      7449      7449      7452      7453
      7449      7452      7454      7449      7452      7455      7450      7449      7451
      7450      7449      7452      7451      7449      7452      7452      7455      7456
      7452      7455      7457      7452      7455      7458      7453      7452      7454
      7453      7452      7455      7454      7452      7455      7456      7455      7457
      7456      7455      7458      7457      7455      7458      7459      7461      7462
      7459      7461      7463      7459      7461      7464      7460      7459      7461
      7461      7464      7465      7461      7464      7466      7461      7464      7467
      7462      7461      7463      7462      7461      7464      7463      7461      7464
      7464      7467      7468      7464      7467      7469      7464      7467      7470
      7465      7464      7466      7465      7464      7467      7466      7464      7467
      7467      7470      7471      7467      7470      7472      7467      7470      7473
      7468      7467      7469      7468      7467      7470      7469      7467      7470
      7470      7473      7474      7470      7473      7475      7470      7473      7476
      7471      7470      7472      7471      7470      7473      7472      7470      7473
      7473      7476      7477      7473      7476      7478      7473      7476      7479
      7474      7473      7475      7474      7473      7476      7475      7473      7476
      7476      7479      7480      7476      7479      7481      7476      7479      7482
      7477      7476      7478      7477      7476      7479      7478      7476      7479
      7479      7482      7483      7479      7482      7484      7479      7482      7485
      7480      7479      7481      7480      7479      7482      7481      7479      7482
      7482      7485      7486      7482      7485      7487      7482      7485      7488
      7483      7482      7484      7483      7482      7485      7484      7482      7485
      7485      7488      7489      7485      7488      7490      7485      7488      7491
      7486      7485      7487      7486      7485      7488      7487      7485      7488
      7488      7491      7492      7488      7491      7493      7488      7491      7494
      7489      7488      7490      7489      7488      7491      7490      7488      7491
      7491      7494      7495      7491      7494      7496      7491      7494      7497
      7492      7491      7493      7492      7491      7494      7493      7491      7494
      7494      7497      7498      7494      7497      7499      7494      7497      7500
      7495      7494      7496      7495      7494      7497      7496      7494      7497
      7497      7500      7501      7497      7500      7502      7497      7500      7503
      7498      7497      7499      7498      7497      7500      7499      7497      7500
      7500      7503      7504      7500      7503      7505      7500      7503      7506
      7501      7500      7502      7501      7500      7503      7502      7500      7503
      7503      7506      7507      7503      7506      7508      7503      7506      7509
      7504      7503      7505      7504      7503      7506      7505      7503      7506
      7506      7509      7510      7506      7509      7511      7506      7509      7512
      7507      7506      7508      7507      7506      7509      7508      7506      7509
      7509      7512      7513      7509      7512      7514      7509      7512      7515
      7510      7509      7511      7510      7509      7512      7511      7509      7512
      7512      7515      7516      7512      7515      7517      7512      7515      7518
      7513      7512      7514      7513      7512      7515      7514      7512      7515
      7515      7518      7519      7515      7518      7520      7515      7518      7521
      7516      7515      7517      7516      7515      7518      7517      7515      7518
      7518      7521      7522      7518      7521      7523      7518      7521      7524
      7519      7518      7520      7519      7518      7521      7520      7518      7521
      7521      7524      7525      7521      7524      7526      7521      7524      7527
      7522      7521      7523      7522      7521      7524      7523      7521      7524
      7525      7524      7526      7525      7524      7527      7526      7524      7527
      7528      7532      7533      7528      7532      7534      7528      7532      7535
      7529      7528      7530      7529      7528      7531      7529      7528      7532
      7530      7528      7531      7530      7528      7532      7531      7528      7532
      7532      7535      7536      7532      7535      7537      7532      7535      7542
      7533      7532      7534      7533      7532      7535      7534      7532      7535
      7535      7542      7538      7536      7535      7537      7536      7535      7542
      7537      7535      7542      7538      7541      7543      7539      7538      7540
      7539      7538      7541      7539      7538      7542      7540      7538      7541
      7540      7538      7542      7541      7538      7542      7541      7543      7544
      7541      7543      7545      7541      7543      7546      7543      7546      7547
      7543      7546      7548      7543      7546      7554      7544      7543      7545
      7544      7543      7546      7545      7543      7546      7546      7548      7549
      7546      7554      7555      7546      7554      7556      7546      7554      7557
      7547      7546      7548      7547      7546      7554      7548      7546      7554
      7548      7549      7550      7548      7549      7551      7549      7551      7552
      7549      7551      7553      7549      7551      7563      7550      7549      7551
      7551      7563      7564      7551      7563      7565      7551      7563      7566
      7552      7551      7553      7552      7551      7563      7553      7551      7563
      7554      7557      7558      7555      7554      7556      7555      7554      7557
      7556      7554      7557      7557      7558      7559      7557      7558      7560
      7558      7560      7561      7558      7560      7562      7558      7560      7610
      7559      7558      7560      7560      7610      7611      7560      7610      7612
      7560      7610      7613      7561      7560      7562      7561      7560      7610
      7562      7560      7610      7563      7566      7567      7563      7566      7568
      7563      7566      7569      7564      7563      7565      7564      7563      7566
      7565      7563      7566      7566      7569      7570      7566      7569      7571
      7566      7569      7572      7567      7566      7568      7567      7566      7569
      7568      7566      7569      7569      7572      7573      7569      7572      7574
      7569      7572      7575      7570      7569      7571      7570      7569      7572
      7571      7569      7572      7572      7575      7576      7572      7575      7577
      7572      7575      7578      7573      7572      7574      7573      7572      7575
      7574      7572      7575      7575      7578      7579      7575      7578      7580
      7575      7578      7581      7576      7575      7577      7576      7575      7578
      7577      7575      7578      7578      7581      7582      7578      7581      7583
      7579      7578      7580      7579      7578      7581      7580      7578      7581
      7581      7583      7584      7581      7583      7585      7582      7581      7583
      7583      7585      7586      7583      7585      7587      7583      7585      7588
      7584      7583      7585      7585      7588      7589      7585      7588      7590
      7585      7588      7591      7586      7585      7587      7586      7585      7588
      7587      7585      7588      7588      7591      7592      7588      7591      7593
      7588      7591      7594      7589      7588      7590      7589      7588      7591
      7590      7588      7591      7591      7594      7595      7591      7594      7596
      7591      7594      7597      7592      7591      7593      7592      7591      7594
      7593      7591      7594      7594      7597      7598      7594      7597      7599
      7594      7597      7600      7595      7594      7596      7595      7594      7597
      7596      7594      7597      7597      7600      7601      7597      7600      7602
      7597      7600      7603      7598      7597      7599      7598      7597      7600
      7599      7597      7600      7600      7603      7604      7600      7603      7605
      7600      7603      7606      7601      7600      7602      7601      7600      7603
      7602      7600      7603      7603      7606      7607      7603      7606      7608
      7603      7606      7609      7604      7603      7605      7604      7603      7606
      7605      7603      7606      7607      7606      7608      7607      7606      7609
      7608      7606      7609      7610      7613      7614      7610      7613      7615
      7610      7613      7616      7611      7610      7612      7611      7610      7613
      7612      7610      7613      7613      7616      7617      7613      7616      7618
      7613      7616      7619      7614      7613      7615      7614      7613      7616
      7615      7613      7616      7616      7619      7620      7616      7619      7621
      7616      7619      7622      7617      7616      7618      7617      7616      7619
      7618      7616      7619      7619      7622      7623      7619      7622      7624
      7619      7622      7625      7620      7619      7621      7620      7619      7622
      7621      7619      7622      7622      7625      7626      7622      7625      7627
      7622      7625      7628      7623      7622      7624      7623      7622      7625
      7624      7622      7625      7625      7628      7629      7625      7628      7630
      7626      7625      7627      7626      7625      7628      7627      7625      7628
      7628      7630      7631      7628      7630      7632      7629      7628      7630
      7630      7632      7633      7630      7632      7634      7630      7632      7635
      7631      7630      7632      7632      7635      7636      7632      7635      7637
      7632      7635      7638      7633      7632      7634      7633      7632      7635
      7634      7632      7635      7635      7638      7639      7635      7638      7640
      7635      7638      7641      7636      7635      7637      7636      7635      7638
      7637      7635      7638      7638      7641      7642      7638      7641      7643
      7638      7641      7644      7639      7638      7640      7639      7638      7641
      7640      7638      7641      7641      7644      7645      7641      7644      7646
      7641      7644      7647      7642      7641      7643      7642      7641      7644
      7643      7641      7644      7644      7647      7648      7644      7647      7649
      7644      7647      7650      7645      7644      7646      7645      7644      7647
      7646      7644      7647      7647      7650      7651      7647      7650      7652
      7647      7650      7653      7648      7647      7649      7648      7647      7650
      7649      7647      7650      7650      7653      7654      7650      7653      7655
      7650      7653      7656      7651      7650      7652      7651      7650      7653
      7652      7650      7653      7654      7653      7655      7654      7653      7656
      7655      7653      7656      7657      7658      7659      7657      7658      7660
      7657      7658      7673      7657      7661      7662      7657      7661      7663
      7657      7661      7664      7657      7665      7666      7657      7665      7667
      7657      7665      7668      7657      7669      7670      7657      7669      7671
      7657      7669      7672      7658      7657      7661      7658      7657      7665
      7658      7657      7669      7658      7673      7674      7658      7673      7675
      7658      7673      7679      7659      7658      7660      7659      7658      7673
      7660      7658      7673      7661      7657      7665      7661      7657      7669
      7662      7661      7663      7662      7661      7664      7663      7661      7664
      7665      7657      7669      7666      7665      7667      7666      7665      7668
      7667      7665      7668      7670      7669      7671      7670      7669      7672
      7671      7669      7672      7673      7679      7676      7674      7673      7675
      7674      7673      7679      7675      7673      7679      7676      7680      7681
      7677      7676      7678      7677      7676      7679      7677      7676      7680
      7678      7676      7679      7678      7676      7680      7679      7676      7680
      7680      7681      7682      7680      7681      7683      7680      7681      7684
      7681      7684      7685      7681      7684      7686      7681      7684      7692
      7682      7681      7683      7682      7681      7684      7683      7681      7684
      7684      7686      7687      7684      7692      7693      7684      7692      7694
      7684      7692      7695      7685      7684      7686      7685      7684      7692
      7686      7684      7692      7686      7687      7688      7686      7687      7689
      7687      7689      7690      7687      7689      7691      7687      7689      7701
      7688      7687      7689      7689      7701      7702      7689      7701      7703
      7689      7701      7704      7690      7689      7691      7690      7689      7701
      7691      7689      7701      7692      7695      7696      7693      7692      7694
      7693      7692      7695      7694      7692      7695      7695      7696      7697
      7695      7696      7698      7696      7698      7699      7696      7698      7700
      7696      7698      7748      7697      7696      7698      7698      7748      7749
      7698      7748      7750      7698      7748      7751      7699      7698      7700
      7699      7698      7748      7700      7698      7748      7701      7704      7705
      7701      7704      7706      7701      7704      7707      7702      7701      7703
      7702      7701      7704      7703      7701      7704      7704      7707      7708
      7704      7707      7709      7704      7707      7710      7705      7704      7706
      7705      7704      7707      7706      7704      7707      7707      7710      7711
      7707      7710      7712      7707      7710      7713      7708      7707      7709
      7708      7707      7710      7709      7707      7710      7710      7713      7714
      7710      7713      7715      7710      7713      7716      7711      7710      7712
      7711      7710      7713      7712      7710      7713      7713      7716      7717
      7713      7716      7718      7713      7716      7719      7714      7713      7715
      7714      7713      7716      7715      7713      7716      7716      7719      7720
      7716      7719      7721      7717      7716      7718      7717      7716      7719
      7718      7716      7719      7719      7721      7722      7719      7721      7723
      7720      7719      7721      7721      7723      7724      7721      7723      7725
      7721      7723      7726      7722      7721      7723      7723      7726      7727
      7723      7726      7728      7723      7726      7729      7724      7723      7725
      7724      7723      7726      7725      7723      7726      7726      7729      7730
      7726      7729      7731      7726      7729      7732      7727      7726      7728
      7727      7726      7729      7728      7726      7729      7729      7732      7733
      7729      7732      7734      7729      7732      7735      7730      7729      7731
      7730      7729      7732      7731      7729      7732      7732      7735      7736
      7732      7735      7737      7732      7735      7738      7733      7732      7734
      7733      7732      7735      7734      7732      7735      7735      7738      7739
      7735      7738      7740      7735      7738      7741      7736      7735      7737
      7736      7735      7738      7737      7735      7738      7738      7741      7742
      7738      7741      7743      7738      7741      7744      7739      7738      7740
      7739      7738      7741      7740      7738      7741      7741      7744      7745
      7741      7744      7746      7741      7744      7747      7742      7741      7743
      7742      7741      7744      7743      7741      7744      7745      7744      7746
      7745      7744      7747      7746      7744      7747      7748      7751      7752
      7748      7751      7753      7748      7751      7754      7749      7748      7750
      7749      7748      7751      7750      7748      7751      7751      7754      7755
      7751      7754      7756      7751      7754      7757      7752      7751      7753
      7752      7751      7754      7753      7751      7754      7754      7757      7758
      7754      7757      7759      7754      7757      7760      7755      7754      7756
      7755      7754      7757      7756      7754      7757      7757      7760      7761
      7757      7760      7762      7757      7760      7763      7758      7757      7759
      7758      7757      7760      7759      7757      7760      7760      7763      7764
      7760      7763      7765      7760      7763      7766      7761      7760      7762
      7761      7760      7763      7762      7760      7763      7763      7766      7767
      7763      7766      7768      7764      7763      7765      7764      7763      7766
      7765      7763      7766      7766      7768      7769      7766      7768      7770
      7767      7766      7768      7768      7770      7771      7768      7770      7772
      7768      7770      7773      7769      7768      7770      7770      7773      7774
      7770      7773      7775      7770      7773      7776      7771      7770      7772
      7771      7770      7773      7772      7770      7773      7773      7776      7777
      7773      7776      7778      7773      7776      7779      7774      7773      7775
      7774      7773      7776      7775      7773      7776      7776      7779      7780
      7776      7779      7781      7776      7779      7782      7777      7776      7778
      7777      7776      7779      7778      7776      7779      7779      7782      7783
      7779      7782      7784      7779      7782      7785      7780      7779      7781
      7780      7779      7782      7781      7779      7782      7782      7785      7786
      7782      7785      7787      7782      7785      7788      7783      7782      7784
      7783      7782      7785      7784      7782      7785      7785      7788      7789
      7785      7788      7790      7785      7788      7791      7786      7785      7787
      7786      7785      7788      7787      7785      7788      7788      7791      7792
      7788      7791      7793      7788      7791      7794      7789      7788      7790
      7789      7788      7791      7790      7788      7791      7792      7791      7793
      7792      7791      7794      7793      7791      7794      7795      7796      7797
      7795      7796      7798      7795      7796      7811      7795      7799      7800
      7795      7799      7801      7795      7799      7802      7795      7803      7804
      7795      7803      7805      7795      7803      7806      7795      7807      7808
      7795      7807      7809      7795      7807      7810      7796      7795      7799
      7796      7795      7803      7796      7795      7807      7796      7811      7812
      7796      7811      7813      7796      7811      7817      7797      7796      7798
      7797      7796      7811      7798      7796      7811      7799      7795      7803
      7799      7795      7807      7800      7799      7801      7800      7799      7802
      7801      7799      7802      7803      7795      7807      7804      7803      7805
      7804      7803      7806      7805      7803      7806      7808      7807      7809
      7808      7807      7810      7809      7807      7810      7811      7817      7814
      7812      7811      7813      7812      7811      7817      7813      7811      7817
      7814      7818      7819      7815      7814      7816      7815      7814      7817
      7815      7814      7818      7816      7814      7817      7816      7814      7818
      7817      7814      7818      7818      7819      7820      7818      7819      7821
      7818      7819      7822      7819      7822      7823      7819      7822      7824
      7819      7822      7830      7820      7819      7821      7820      7819      7822
      7821      7819      7822      7822      7824      7825      7822      7830      7831
      7822      7830      7832      7822      7830      7833      7823      7822      7824
      7823      7822      7830      7824      7822      7830      7824      7825      7826
      7824      7825      7827      7825      7827      7828      7825      7827      7829
      7825      7827      7839      7826      7825      7827      7827      7839      7840
      7827      7839      7841      7827      7839      7842      7828      7827      7829
      7828      7827      7839      7829      7827      7839      7830      7833      7834
      7831      7830      7832      7831      7830      7833      7832      7830      7833
      7833      7834      7835      7833      7834      7836      7834      7836      7837
      7834      7836      7838      7834      7836      7886      7835      7834      7836
      7836      7886      7887      7836      7886      7888      7836      7886      7889
      7837      7836      7838      7837      7836      7886      7838      7836      7886
      7839      7842      7843      7839      7842      7844      7839      7842      7845
      7840      7839      7841      7840      7839      7842      7841      7839      7842
      7842      7845      7846      7842      7845      7847      7842      7845      7848
      7843      7842      7844      7843      7842      7845      7844      7842      7845
      7845      7848      7849      7845      7848      7850      7845      7848      7851
      7846      7845      7847      7846      7845      7848      7847      7845      7848
      7848      7851      7852      7848      7851      7853      7848      7851      7854
      7849      7848      7850      7849      7848      7851      7850      7848      7851
      7851      7854      7855      7851      7854      7856      7851      7854      7857
      7852      7851      7853      7852      7851      7854      7853      7851      7854
      7854      7857      7858      7854      7857      7859      7855      7854      7856
      7855      7854      7857      7856      7854      7857      7857      7859      7860
      7857      7859      7861      7858      7857      7859      7859      7861      7862
      7859      7861      7863      7859      7861      7864      7860      7859      7861
      7861      7864      7865      7861      7864      7866      7861      7864      7867
      7862      7861      7863      7862      7861      7864      7863      7861      7864
      7864      7867      7868      7864      7867      7869      7864      7867      7870
      7865      7864      7866      7865      7864      7867      7866      7864      7867
      7867      7870      7871      7867      7870      7872      7867      7870      7873
      7868      7867      7869      7868      7867      7870      7869      7867      7870
      7870      7873      7874      7870      7873      7875      7870      7873      7876
      7871      7870      7872      7871      7870      7873      7872      7870      7873
      7873      7876      7877      7873      7876      7878      7873      7876      7879
      7874      7873      7875      7874      7873      7876      7875      7873      7876
      7876      7879      7880      7876      7879      7881      7876      7879      7882
      7877      7876      7878      7877      7876      7879      7878      7876      7879
      7879      7882      7883      7879      7882      7884      7879      7882      7885
      7880      7879      7881      7880      7879      7882      7881      7879      7882
      7883      7882      7884      7883      7882      7885      7884      7882      7885
      7886      7889      7890      7886      7889      7891      7886      7889      7892
      7887      7886      7888      7887      7886      7889      7888      7886      7889
      7889      7892      7893      7889      7892      7894      7889      7892      7895
      7890      7889      7891      7890      7889      7892      7891      7889      7892
      7892      7895      7896      7892      7895      7897      7892      7895      7898
      7893      7892      7894      7893      7892      7895      7894      7892      7895
      7895      7898      7899      7895      7898      7900      7895      7898      7901
      7896      7895      7897      7896      7895      7898      7897      7895      7898
      7898      7901      7902      7898      7901      7903      7898      7901      7904
      7899      7898      7900      7899      7898      7901      7900      7898      7901
      7901      7904      7905      7901      7904      7906      7902      7901      7903
      7902      7901      7904      7903      7901      7904      7904      7906      7907
      7904      7906      7908      7905      7904      7906      7906      7908      7909
      7906      7908      7910      7906      7908      7911      7907      7906      7908
      7908      7911      7912      7908      7911      7913      7908      7911      7914
      7909      7908      7910      7909      7908      7911      7910      7908      7911
      7911      7914      7915      7911      7914      7916      7911      7914      7917
      7912      7911      7913      7912      7911      7914      7913      7911      7914
      7914      7917      7918      7914      7917      7919      7914      7917      7920
      7915      7914      7916      7915      7914      7917      7916      7914      7917
      7917      7920      7921      7917      7920      7922      7917      7920      7923
      7918      7917      7919      7918      7917      7920      7919      7917      7920
      7920      7923      7924      7920      7923      7925      7920      7923      7926
      7921      7920      7922      7921      7920      7923      7922      7920      7923
      7923      7926      7927      7923      7926      7928      7923      7926      7929
      7924      7923      7925      7924      7923      7926      7925      7923      7926
      7926      7929      7930      7926      7929      7931      7926      7929      7932
      7927      7926      7928      7927      7926      7929      7928      7926      7929
      7930      7929      7931      7930      7929      7932      7931      7929      7932
      7933      7935      7936      7933      7937      7938      7933      7937      7939
      7933      7937      7940      7933      7979      7976      7933      7979      7980
      7933      7979      7981      7934      7933      7935      7934      7933      7937
      7934      7933      7979      7935      7933      7937      7935      7933      7979
      7937      7933      7979      7937      7940      7941      7937      7940      7971
      7938      7937      7939      7938      7937      7940      7939      7937      7940
      7940      7941      7942      7940      7941      7943      7940      7971      7969
      7940      7971      7972      7940      7971      7976      7941      7940      7971
      7941      7943      7944      7941      7943      7945      7941      7943      7946
      7942      7941      7943      7943      7946      7947      7943      7946      7948
      7943      7946      7969      7944      7943      7945      7944      7943      7946
      7945      7943      7946      7946      7948      7949      7946      7948      7950
      7946      7948      7958      7946      7969      7966      7946      7969      7970
      7946      7969      7971      7947      7946      7948      7947      7946      7969
      7948      7946      7969      7948      7950      7951      7948      7950      7952
      7948      7950      7953      7948      7958      7956      7948      7958      7959
      7948      7958      7963      7949      7948      7950      7949      7948      7958
      7950      7948      7958      7950      7953      7954      7950      7953      7955
      7950      7953      7956      7951      7950      7952      7951      7950      7953
      7952      7950      7953      7953      7956      7957      7953      7956      7958
      7953      7956      7982      7954      7953      7955      7954      7953      7956
      7955      7953      7956      7956      7958      7959      7956      7958      7963
      7956      7982      7983      7956      7982      7984      7956      7982      7988
      7957      7956      7958      7957      7956      7982      7958      7956      7982
      7958      7959      7960      7958      7959      7961      7958      7959      7962
      7958      7963      7964      7958      7963      7965      7958      7963      7966
      7959      7958      7963      7960      7959      7961      7960      7959      7962
      7961      7959      7962      7963      7966      7967      7963      7966      7968
      7963      7966      7969      7964      7963      7965      7964      7963      7966
      7965      7963      7966      7966      7969      7970      7966      7969      7971
      7967      7966      7968      7967      7966      7969      7968      7966      7969
      7969      7971      7972      7969      7971      7976      7970      7969      7971
      7971      7972      7973      7971      7972      7974      7971      7972      7975
      7971      7976      7977      7971      7976      7978      7971      7976      7979
      7972      7971      7976      7973      7972      7974      7973      7972      7975
      7974      7972      7975      7976      7979      7980      7976      7979      7981
      7977      7976      7978      7977      7976      7979      7978      7976      7979
      7980      7979      7981      7982      7984      7985      7982      7984      7986
      7982      7984      7987      7982      7988      7989      7982      7988      7990
      7982      7988      7991      7983      7982      7984      7983      7982      7988
      7984      7982      7988      7985      7984      7986      7985      7984      7987
      7986      7984      7987      7988      7991      7992      7988      7991      7993
      7988      7991      7994      7989      7988      7990      7989      7988      7991
      7990      7988      7991      7991      7994      7995      7991      7994      7996
      7991      7994      7997      7992      7991      7993      7992      7991      7994
      7993      7991      7994      7994      7997      7998      7994      7997      7999
      7994      7997      8003      7995      7994      7996      7995      7994      7997
      7996      7994      7997      7997      7999      8000      7997      7999      8001
      7997      7999      8002      7997      8003      8004      7997      8003      8005
      7997      8003      8006      7998      7997      7999      7998      7997      8003
      7999      7997      8003      8000      7999      8001      8000      7999      8002
      8001      7999      8002      8004      8003      8005      8004      8003      8006
      8005      8003      8006      8007      8011      8012      8007      8011      8013
      8007      8011      8014      8008      8007      8009      8008      8007      8010
      8008      8007      8011      8009      8007      8010      8009      8007      8011
      8010      8007      8011      8011      8014      8015      8011      8014      8016
      8011      8014      8021      8012      8011      8013      8012      8011      8014
      8013      8011      8014      8014      8021      8017      8015      8014      8016
      8015      8014      8021      8016      8014      8021      8017      8020      8022
      8018      8017      8019      8018      8017      8020      8018      8017      8021
      8019      8017      8020      8019      8017      8021      8020      8017      8021
      8020      8022      8023      8020      8022      8024      8020      8022      8025
      8022      8025      8026      8022      8025      8027      8022      8025      8033
      8023      8022      8024      8023      8022      8025      8024      8022      8025
      8025      8027      8028      8025      8033      8034      8025      8033      8035
      8025      8033      8036      8026      8025      8027      8026      8025      8033
      8027      8025      8033      8027      8028      8029      8027      8028      8030
      8028      8030      8031      8028      8030      8032      8028      8030      8042
      8029      8028      8030      8030      8042      8043      8030      8042      8044
      8030      8042      8045      8031      8030      8032      8031      8030      8042
      8032      8030      8042      8033      8036      8037      8034      8033      8035
      8034      8033      8036      8035      8033      8036      8036      8037      8038
      8036      8037      8039      8037      8039      8040      8037      8039      8041
      8037      8039      8089      8038      8037      8039      8039      8089      8090
      8039      8089      8091      8039      8089      8092      8040      8039      8041
      8040      8039      8089      8041      8039      8089      8042      8045      8046
      8042      8045      8047      8042      8045      8048      8043      8042      8044
      8043      8042      8045      8044      8042      8045      8045      8048      8049
      8045      8048      8050      8045      8048      8051      8046      8045      8047
      8046      8045      8048      8047      8045      8048      8048      8051      8052
      8048      8051      8053      8048      8051      8054      8049      8048      8050
      8049      8048      8051      8050      8048      8051      8051      8054      8055
      8051      8054      8056      8051      8054      8057      8052      8051      8053
      8052      8051      8054      8053      8051      8054      8054      8057      8058
      8054      8057      8059      8054      8057      8060      8055      8054      8056
      8055      8054      8057      8056      8054      8057      8057      8060      8061
      8057      8060      8062      8058      8057      8059      8058      8057      8060
      8059      8057      8060      8060      8062      8063      8060      8062      8064
      8061      8060      8062      8062      8064      8065      8062      8064      8066
      8062      8064      8067      8063      8062      8064      8064      8067      8068
      8064      8067      8069      8064      8067      8070      8065      8064      8066
      8065      8064      8067      8066      8064      8067      8067      8070      8071
      8067      8070      8072      8067      8070      8073      8068      8067      8069
      8068      8067      8070      8069      8067      8070      8070      8073      8074
      8070      8073      8075      8070      8073      8076      8071      8070      8072
      8071      8070      8073      8072      8070      8073      8073      8076      8077
      8073      8076      8078      8073      8076      8079      8074      8073      8075
      8074      8073      8076      8075      8073      8076      8076      8079      8080
      8076      8079      8081      8076      8079      8082      8077      8076      8078
      8077      8076      8079      8078      8076      8079      8079      8082      8083
      8079      8082      8084      8079      8082      8085      8080      8079      8081
      8080      8079      8082      8081      8079      8082      8082      8085      8086
      8082      8085      8087      8082      8085      8088      8083      8082      8084
      8083      8082      8085      8084      8082      8085      8086      8085      8087
      8086      8085      8088      8087      8085      8088      8089      8092      8093
      8089      8092      8094      8089      8092      8095      8090      8089      8091
      8090      8089      8092      8091      8089      8092      8092      8095      8096
      8092      8095      8097      8092      8095      8098      8093      8092      8094
      8093      8092      8095      8094      8092      8095      8095      8098      8099
      8095      8098      8100      8095      8098      8101      8096      8095      8097
      8096      8095      8098      8097      8095      8098      8098      8101      8102
      8098      8101      8103      8098      8101      8104      8099      8098      8100
      8099      8098      8101      8100      8098      8101      8101      8104      8105
      8101      8104      8106      8101      8104      8107      8102      8101      8103
      8102      8101      8104      8103      8101      8104      8104      8107      8108
      8104      8107      8109      8105      8104      8106      8105      8104      8107
      8106      8104      8107      8107      8109      8110      8107      8109      8111
      8108      8107      8109      8109      8111      8112      8109      8111      8113
      8109      8111      8114      8110      8109      8111      8111      8114      8115
      8111      8114      8116      8111      8114      8117      8112      8111      8113
      8112      8111      8114      8113      8111      8114      8114      8117      8118
      8114      8117      8119      8114      8117      8120      8115      8114      8116
      8115      8114      8117      8116      8114      8117      8117      8120      8121
      8117      8120      8122      8117      8120      8123      8118      8117      8119
      8118      8117      8120      8119      8117      8120      8120      8123      8124
      8120      8123      8125      8120      8123      8126      8121      8120      8122
      8121      8120      8123      8122      8120      8123      8123      8126      8127
      8123      8126      8128      8123      8126      8129      8124      8123      8125
      8124      8123      8126      8125      8123      8126      8126      8129      8130
      8126      8129      8131      8126      8129      8132      8127      8126      8128
      8127      8126      8129      8128      8126      8129      8129      8132      8133
      8129      8132      8134      8129      8132      8135      8130      8129      8131
      8130      8129      8132      8131      8129      8132      8133      8132      8134
      8133      8132      8135      8134      8132      8135      8136      8137      8138
      8136      8137      8139      8136      8137      8152      8136      8140      8141
      8136      8140      8142      8136      8140      8143      8136      8144      8145
      8136      8144      8146      8136      8144      8147      8136      8148      8149
      8136      8148      8150      8136      8148      8151      8137      8136      8140
      8137      8136      8144      8137      8136      8148      8137      8152      8153
      8137      8152      8154      8137      8152      8158      8138      8137      8139
      8138      8137      8152      8139      8137      8152      8140      8136      8144
      8140      8136      8148      8141      8140      8142      8141      8140      8143
      8142      8140      8143      8144      8136      8148      8145      8144      8146
      8145      8144      8147      8146      8144      8147      8149      8148      8150
      8149      8148      8151      8150      8148      8151      8152      8158      8155
      8153      8152      8154      8153      8152      8158      8154      8152      8158
      8155      8159      8160      8156      8155      8157      8156      8155      8158
      8156      8155      8159      8157      8155      8158      8157      8155      8159
      8158      8155      8159      8159      8160      8161      8159      8160      8162
      8159      8160      8163      8160      8163      8164      8160      8163      8165
      8160      8163      8171      8161      8160      8162      8161      8160      8163
      8162      8160      8163      8163      8165      8166      8163      8171      8172
      8163      8171      8173      8163      8171      8174      8164      8163      8165
      8164      8163      8171      8165      8163      8171      8165      8166      8167
      8165      8166      8168      8166      8168      8169      8166      8168      8170
      8166      8168      8180      8167      8166      8168      8168      8180      8181
      8168      8180      8182      8168      8180      8183      8169      8168      8170
      8169      8168      8180      8170      8168      8180      8171      8174      8175
      8172      8171      8173      8172      8171      8174      8173      8171      8174
      8174      8175      8176      8174      8175      8177      8175      8177      8178
      8175      8177      8179      8175      8177      8227      8176      8175      8177
      8177      8227      8228      8177      8227      8229      8177      8227      8230
      8178      8177      8179      8178      8177      8227      8179      8177      8227
      8180      8183      8184      8180      8183      8185      8180      8183      8186
      8181      8180      8182      8181      8180      8183      8182      8180      8183
      8183      8186      8187      8183      8186      8188      8183      8186      8189
      8184      8183      8185      8184      8183      8186      8185      8183      8186
      8186      8189      8190      8186      8189      8191      8186      8189      8192
      8187      8186      8188      8187      8186      8189      8188      8186      8189
      8189      8192      8193      8189      8192      8194      8189      8192      8195
      8190      8189      8191      8190      8189      8192      8191      8189      8192
      8192      8195      8196      8192      8195      8197      8192      8195      8198
      8193      8192      8194      8193      8192      8195      8194      8192      8195
      8195      8198      8199      8195      8198      8200      8196      8195      8197
      8196      8195      8198      8197      8195      8198      8198      8200      8201
      8198      8200      8202      8199      8198      8200      8200      8202      8203
      8200      8202      8204      8200      8202      8205      8201      8200      8202
      8202      8205      8206      8202      8205      8207      8202      8205      8208
      8203      8202      8204      8203      8202      8205      8204      8202      8205
      8205      8208      8209      8205      8208      8210      8205      8208      8211
      8206      8205      8207      8206      8205      8208      8207      8205      8208
      8208      8211      8212      8208      8211      8213      8208      8211      8214
      8209      8208      8210      8209      8208      8211      8210      8208      8211
      8211      8214      8215      8211      8214      8216      8211      8214      8217
      8212      8211      8213      8212      8211      8214      8213      8211      8214
      8214      8217      8218      8214      8217      8219      8214      8217      8220
      8215      8214      8216      8215      8214      8217      8216      8214      8217
      8217      8220      8221      8217      8220      8222      8217      8220      8223
      8218      8217      8219      8218      8217      8220      8219      8217      8220
      8220      8223      8224      8220      8223      8225      8220      8223      8226
      8221      8220      8222      8221      8220      8223      8222      8220      8223
      8224      8223      8225      8224      8223      8226      8225      8223      8226
      8227      8230      8231      8227      8230      8232      8227      8230      8233
      8228      8227      8229      8228      8227      8230      8229      8227      8230
      8230      8233      8234      8230      8233      8235      8230      8233      8236
      8231      8230      8232      8231      8230      8233      8232      8230      8233
      8233      8236      8237      8233      8236      8238      8233      8236      8239
      8234      8233      8235      8234      8233      8236      8235      8233      8236
      8236      8239      8240      8236      8239      8241      8236      8239      8242
      8237      8236      8238      8237      8236      8239      8238      8236      8239
      8239      8242      8243      8239      8242      8244      8239      8242      8245
      8240      8239      8241      8240      8239      8242      8241      8239      8242
      8242      8245      8246      8242      8245      8247      8243      8242      8244
      8243      8242      8245      8244      8242      8245      8245      8247      8248
      8245      8247      8249      8246      8245      8247      8247      8249      8250
      8247      8249      8251      8247      8249      8252      8248      8247      8249
      8249      8252      8253      8249      8252      8254      8249      8252      8255
      8250      8249      8251      8250      8249      8252      8251      8249      8252
      8252      8255      8256      8252      8255      8257      8252      8255      8258
      8253      8252      8254      8253      8252      8255      8254      8252      8255
      8255      8258      8259      8255      8258      8260      8255      8258      8261
      8256      8255      8257      8256      8255      8258      8257      8255      8258
      8258      8261      8262      8258      8261      8263      8258      8261      8264
      8259      8258      8260      8259      8258      8261      8260      8258      8261
      8261      8264      8265      8261      8264      8266      8261      8264      8267
      8262      8261      8263      8262      8261      8264      8263      8261      8264
      8264      8267      8268      8264      8267      8269      8264      8267      8270
      8265      8264      8266      8265      8264      8267      8266      8264      8267
      8267      8270      8271      8267      8270      8272      8267      8270      8273
      8268      8267      8269      8268      8267      8270      8269      8267      8270
      8271      8270      8272      8271      8270      8273      8272      8270      8273
      8274      8275      8276      8274      8275      8277      8274      8275      8290
      8274      8278      8279      8274      8278      8280      8274      8278      8281
      8274      8282      8283      8274      8282      8284      8274      8282      8285
      8274      8286      8287      8274      8286      8288      8274      8286      8289
      8275      8274      8278      8275      8274      8282      8275      8274      8286
      8275      8290      8291      8275      8290      8292      8275      8290      8296
      8276      8275      8277      8276      8275      8290      8277      8275      8290
      8278      8274      8282      8278      8274      8286      8279      8278      8280
      8279      8278      8281      8280      8278      8281      8282      8274      8286
      8283      8282      8284      8283      8282      8285      8284      8282      8285
      8287      8286      8288      8287      8286      8289      8288      8286      8289
      8290      8296      8293      8291      8290      8292      8291      8290      8296
      8292      8290      8296      8293      8297      8298      8294      8293      8295
      8294      8293      8296      8294      8293      8297      8295      8293      8296
      8295      8293      8297      8296      8293      8297      8297      8298      8299
      8297      8298      8300      8297      8298      8301      8298      8301      8302
      8298      8301      8303      8298      8301      8309      8299      8298      8300
      8299      8298      8301      8300      8298      8301      8301      8303      8304
      8301      8309      8310      8301      8309      8311      8301      8309      8312
      8302      8301      8303      8302      8301      8309      8303      8301      8309
      8303      8304      8305      8303      8304      8306      8304      8306      8307
      8304      8306      8308      8304      8306      8318      8305      8304      8306
      8306      8318      8319      8306      8318      8320      8306      8318      8321
      8307      8306      8308      8307      8306      8318      8308      8306      8318
      8309      8312      8313      8310      8309      8311      8310      8309      8312
      8311      8309      8312      8312      8313      8314      8312      8313      8315
      8313      8315      8316      8313      8315      8317      8313      8315      8365
      8314      8313      8315      8315      8365      8366      8315      8365      8367
      8315      8365      8368      8316      8315      8317      8316      8315      8365
      8317      8315      8365      8318      8321      8322      8318      8321      8323
      8318      8321      8324      8319      8318      8320      8319      8318      8321
      8320      8318      8321      8321      8324      8325      8321      8324      8326
      8321      8324      8327      8322      8321      8323      8322      8321      8324
      8323      8321      8324      8324      8327      8328      8324      8327      8329
      8324      8327      8330      8325      8324      8326      8325      8324      8327
      8326      8324      8327      8327      8330      8331      8327      8330      8332
      8327      8330      8333      8328      8327      8329      8328      8327      8330
      8329      8327      8330      8330      8333      8334      8330      8333      8335
      8330      8333      8336      8331      8330      8332      8331      8330      8333
      8332      8330      8333      8333      8336      8337      8333      8336      8338
      8334      8333      8335      8334      8333      8336      8335      8333      8336
      8336      8338      8339      8336      8338      8340      8337      8336      8338
      8338      8340      8341      8338      8340      8342      8338      8340      8343
      8339      8338      8340      8340      8343      8344      8340      8343      8345
      8340      8343      8346      8341      8340      8342      8341      8340      8343
      8342      8340      8343      8343      8346      8347      8343      8346      8348
      8343      8346      8349      8344      8343      8345      8344      8343      8346
      8345      8343      8346      8346      8349      8350      8346      8349      8351
      8346      8349      8352      8347      8346      8348      8347      8346      8349
      8348      8346      8349      8349      8352      8353      8349      8352      8354
      8349      8352      8355      8350      8349      8351      8350      8349      8352
      8351      8349      8352      8352      8355      8356      8352      8355      8357
      8352      8355      8358      8353      8352      8354      8353      8352      8355
      8354      8352      8355      8355      8358      8359      8355      8358      8360
      8355      8358      8361      8356      8355      8357      8356      8355      8358
      8357      8355      8358      8358      8361      8362      8358      8361      8363
      8358      8361      8364      8359      8358      8360      8359      8358      8361
      8360      8358      8361      8362      8361      8363      8362      8361      8364
      8363      8361      8364      8365      8368      8369      8365      8368      8370
      8365      8368      8371      8366      8365      8367      8366      8365      8368
      8367      8365      8368      8368      8371      8372      8368      8371      8373
      8368      8371      8374      8369      8368      8370      8369      8368      8371
      8370      8368      8371      8371      8374      8375      8371      8374      8376
      8371      8374      8377      8372      8371      8373      8372      8371      8374
      8373      8371      8374      8374      8377      8378      8374      8377      8379
      8374      8377      8380      8375      8374      8376      8375      8374      8377
      8376      8374      8377      8377      8380      8381      8377      8380      8382
      8377      8380      8383      8378      8377      8379      8378      8377      8380
      8379      8377      8380      8380      8383      8384      8380      8383      8385
      8381      8380      8382      8381      8380      8383      8382      8380      8383
      8383      8385      8386      8383      8385      8387      8384      8383      8385
      8385      8387      8388      8385      8387      8389      8385      8387      8390
      8386      8385      8387      8387      8390      8391      8387      8390      8392
      8387      8390      8393      8388      8387      8389      8388      8387      8390
      8389      8387      8390      8390      8393      8394      8390      8393      8395
      8390      8393      8396      8391      8390      8392      8391      8390      8393
      8392      8390      8393      8393      8396      8397      8393      8396      8398
      8393      8396      8399      8394      8393      8395      8394      8393      8396
      8395      8393      8396      8396      8399      8400      8396      8399      8401
      8396      8399      8402      8397      8396      8398      8397      8396      8399
      8398      8396      8399      8399      8402      8403      8399      8402      8404
      8399      8402      8405      8400      8399      8401      8400      8399      8402
      8401      8399      8402      8402      8405      8406      8402      8405      8407
      8402      8405      8408      8403      8402      8404      8403      8402      8405
      8404      8402      8405      8405      8408      8409      8405      8408      8410
      8405      8408      8411      8406      8405      8407      8406      8405      8408
      8407      8405      8408      8409      8408      8410      8409      8408      8411
      8410      8408      8411      8412      8413      8414      8412      8413      8415
      8412      8413      8428      8412      8416      8417      8412      8416      8418
      8412      8416      8419      8412      8420      8421      8412      8420      8422
      8412      8420      8423      8412      8424      8425      8412      8424      8426
      8412      8424      8427      8413      8412      8416      8413      8412      8420
      8413      8412      8424      8413      8428      8429      8413      8428      8430
      8413      8428      8434      8414      8413      8415      8414      8413      8428
      8415      8413      8428      8416      8412      8420      8416      8412      8424
      8417      8416      8418      8417      8416      8419      8418      8416      8419
      8420      8412      8424      8421      8420      8422      8421      8420      8423
      8422      8420      8423      8425      8424      8426      8425      8424      8427
      8426      8424      8427      8428      8434      8431      8429      8428      8430
      8429      8428      8434      8430      8428      8434      8431      8435      8436
      8432      8431      8433      8432      8431      8434      8432      8431      8435
      8433      8431      8434      8433      8431      8435      8434      8431      8435
      8435      8436      8437      8435      8436      8438      8435      8436      8439
      8436      8439      8440      8436      8439      8441      8436      8439      8447
      8437      8436      8438      8437      8436      8439      8438      8436      8439
      8439      8441      8442      8439      8447      8448      8439      8447      8449
      8439      8447      8450      8440      8439      8441      8440      8439      8447
      8441      8439      8447      8441      8442      8443      8441      8442      8444
      8442      8444      8445      8442      8444      8446      8442      8444      8456
      8443      8442      8444      8444      8456      8457      8444      8456      8458
      8444      8456      8459      8445      8444      8446      8445      8444      8456
      8446      8444      8456      8447      8450      8451      8448      8447      8449
      8448      8447      8450      8449      8447      8450      8450      8451      8452
      8450      8451      8453      8451      8453      8454      8451      8453      8455
      8451      8453      8503      8452      8451      8453      8453      8503      8504
      8453      8503      8505      8453      8503      8506      8454      8453      8455
      8454      8453      8503      8455      8453      8503      8456      8459      8460
      8456      8459      8461      8456      8459      8462      8457      8456      8458
      8457      8456      8459      8458      8456      8459      8459      8462      8463
      8459      8462      8464      8459      8462      8465      8460      8459      8461
      8460      8459      8462      8461      8459      8462      8462      8465      8466
      8462      8465      8467      8462      8465      8468      8463      8462      8464
      8463      8462      8465      8464      8462      8465      8465      8468      8469
      8465      8468      8470      8465      8468      8471      8466      8465      8467
      8466      8465      8468      8467      8465      8468      8468      8471      8472
      8468      8471      8473      8468      8471      8474      8469      8468      8470
      8469      8468      8471      8470      8468      8471      8471      8474      8475
      8471      8474      8476      8472      8471      8473      8472      8471      8474
      8473      8471      8474      8474      8476      8477      8474      8476      8478
      8475      8474      8476      8476      8478      8479      8476      8478      8480
      8476      8478      8481      8477      8476      8478      8478      8481      8482
      8478      8481      8483      8478      8481      8484      8479      8478      8480
      8479      8478      8481      8480      8478      8481      8481      8484      8485
      8481      8484      8486      8481      8484      8487      8482      8481      8483
      8482      8481      8484      8483      8481      8484      8484      8487      8488
      8484      8487      8489      8484      8487      8490      8485      8484      8486
      8485      8484      8487      8486      8484      8487      8487      8490      8491
      8487      8490      8492      8487      8490      8493      8488      8487      8489
      8488      8487      8490      8489      8487      8490      8490      8493      8494
      8490      8493      8495      8490      8493      8496      8491      8490      8492
      8491      8490      8493      8492      8490      8493      8493      8496      8497
      8493      8496      8498      8493      8496      8499      8494      8493      8495
      8494      8493      8496      8495      8493      8496      8496      8499      8500
      8496      8499      8501      8496      8499      8502      8497      8496      8498
      8497      8496      8499      8498      8496      8499      8500      8499      8501
      8500      8499      8502      8501      8499      8502      8503      8506      8507
      8503      8506      8508      8503      8506      8509      8504      8503      8505
      8504      8503      8506      8505      8503      8506      8506      8509      8510
      8506      8509      8511      8506      8509      8512      8507      8506      8508
      8507      8506      8509      8508      8506      8509      8509      8512      8513
      8509      8512      8514      8509      8512      8515      8510      8509      8511
      8510      8509      8512      8511      8509      8512      8512      8515      8516
      8512      8515      8517      8512      8515      8518      8513      8512      8514
      8513      8512      8515      8514      8512      8515      8515      8518      8519
      8515      8518      8520      8515      8518      8521      8516      8515      8517
      8516      8515      8518      8517      8515      8518      8518      8521      8522
      8518      8521      8523      8519      8518      8520      8519      8518      8521
      8520      8518      8521      8521      8523      8524      8521      8523      8525
      8522      8521      8523      8523      8525      8526      8523      8525      8527
      8523      8525      8528      8524      8523      8525      8525      8528      8529
      8525      8528      8530      8525      8528      8531      8526      8525      8527
      8526      8525      8528      8527      8525      8528      8528      8531      8532
      8528      8531      8533      8528      8531      8534      8529      8528      8530
      8529      8528      8531      8530      8528      8531      8531      8534      8535
      8531      8534      8536      8531      8534      8537      8532      8531      8533
      8532      8531      8534      8533      8531      8534      8534      8537      8538
      8534      8537      8539      8534      8537      8540      8535      8534      8536
      8535      8534      8537      8536      8534      8537      8537      8540      8541
      8537      8540      8542      8537      8540      8543      8538      8537      8539
      8538      8537      8540      8539      8537      8540      8540      8543      8544
      8540      8543      8545      8540      8543      8546      8541      8540      8542
      8541      8540      8543      8542      8540      8543      8543      8546      8547
      8543      8546      8548      8543      8546      8549      8544      8543      8545
      8544      8543      8546      8545      8543      8546      8547      8546      8548
      8547      8546      8549      8548      8546      8549      8550      8554      8555
      8550      8554      8556      8550      8554      8557      8551      8550      8552
      8551      8550      8553      8551      8550      8554      8552      8550      8553
      8552      8550      8554      8553      8550      8554      8554      8557      8558
      8554      8557      8559      8554      8557      8564      8555      8554      8556
      8555      8554      8557      8556      8554      8557      8557      8564      8560
      8558      8557      8559      8558      8557      8564      8559      8557      8564
      8560      8563      8565      8561      8560      8562      8561      8560      8563
      8561      8560      8564      8562      8560      8563      8562      8560      8564
      8563      8560      8564      8563      8565      8566      8563      8565      8567
      8563      8565      8568      8565      8568      8569      8565      8568      8570
      8565      8568      8576      8566      8565      8567      8566      8565      8568
      8567      8565      8568      8568      8570      8571      8568      8576      8577
      8568      8576      8578      8568      8576      8579      8569      8568      8570
      8569      8568      8576      8570      8568      8576      8570      8571      8572
      8570      8571      8573      8571      8573      8574      8571      8573      8575
      8571      8573      8585      8572      8571      8573      8573      8585      8586
      8573      8585      8587      8573      8585      8588      8574      8573      8575
      8574      8573      8585      8575      8573      8585      8576      8579      8580
      8577      8576      8578      8577      8576      8579      8578      8576      8579
      8579      8580      8581      8579      8580      8582      8580      8582      8583
      8580      8582      8584      8580      8582      8632      8581      8580      8582
      8582      8632      8633      8582      8632      8634      8582      8632      8635
      8583      8582      8584      8583      8582      8632      8584      8582      8632
      8585      8588      8589      8585      8588      8590      8585      8588      8591
      8586      8585      8587      8586      8585      8588      8587      8585      8588
      8588      8591      8592      8588      8591      8593      8588      8591      8594
      8589      8588      8590      8589      8588      8591      8590      8588      8591
      8591      8594      8595      8591      8594      8596      8591      8594      8597
      8592      8591      8593      8592      8591      8594      8593      8591      8594
      8594      8597      8598      8594      8597      8599      8594      8597      8600
      8595      8594      8596      8595      8594      8597      8596      8594      8597
      8597      8600      8601      8597      8600      8602      8597      8600      8603
      8598      8597      8599      8598      8597      8600      8599      8597      8600
      8600      8603      8604      8600      8603      8605      8601      8600      8602
      8601      8600      8603      8602      8600      8603      8603      8605      8606
      8603      8605      8607      8604      8603      8605      8605      8607      8608
      8605      8607      8609      8605      8607      8610      8606      8605      8607
      8607      8610      8611      8607      8610      8612      8607      8610      8613
      8608      8607      8609      8608      8607      8610      8609      8607      8610
      8610      8613      8614      8610      8613      8615      8610      8613      8616
      8611      8610      8612      8611      8610      8613      8612      8610      8613
      8613      8616      8617      8613      8616      8618      8613      8616      8619
      8614      8613      8615      8614      8613      8616      8615      8613      8616
      8616      8619      8620      8616      8619      8621      8616      8619      8622
      8617      8616      8618      8617      8616      8619      8618      8616      8619
      8619      8622      8623      8619      8622      8624      8619      8622      8625
      8620      8619      8621      8620      8619      8622      8621      8619      8622
      8622      8625      8626      8622      8625      8627      8622      8625      8628
      8623      8622      8624      8623      8622      8625      8624      8622      8625
      8625      8628      8629      8625      8628      8630      8625      8628      8631
      8626      8625      8627      8626      8625      8628      8627      8625      8628
      8629      8628      8630      8629      8628      8631      8630      8628      8631
      8632      8635      8636      8632      8635      8637      8632      8635      8638
      8633      8632      8634      8633      8632      8635      8634      8632      8635
      8635      8638      8639      8635      8638      8640      8635      8638      8641
      8636      8635      8637      8636      8635      8638      8637      8635      8638
      8638      8641      8642      8638      8641      8643      8638      8641      8644
      8639      8638      8640      8639      8638      8641      8640      8638      8641
      8641      8644      8645      8641      8644      8646      8641      8644      8647
      8642      8641      8643      8642      8641      8644      8643      8641      8644
      8644      8647      8648      8644      8647      8649      8644      8647      8650
      8645      8644      8646      8645      8644      8647      8646      8644      8647
      8647      8650      8651      8647      8650      8652      8648      8647      8649
      8648      8647      8650      8649      8647      8650      8650      8652      8653
      8650      8652      8654      8651      8650      8652      8652      8654      8655
      8652      8654      8656      8652      8654      8657      8653      8652      8654
      8654      8657      8658      8654      8657      8659      8654      8657      8660
      8655      8654      8656      8655      8654      8657      8656      8654      8657
      8657      8660      8661      8657      8660      8662      8657      8660      8663
      8658      8657      8659      8658      8657      8660      8659      8657      8660
      8660      8663      8664      8660      8663      8665      8660      8663      8666
      8661      8660      8662      8661      8660      8663      8662      8660      8663
      8663      8666      8667      8663      8666      8668      8663      8666      8669
      8664      8663      8665      8664      8663      8666      8665      8663      8666
      8666      8669      8670      8666      8669      8671      8666      8669      8672
      8667      8666      8668      8667      8666      8669      8668      8666      8669
      8669      8672      8673      8669      8672      8674      8669      8672      8675
      8670      8669      8671      8670      8669      8672      8671      8669      8672
      8672      8675      8676      8672      8675      8677      8672      8675      8678
      8673      8672      8674      8673      8672      8675      8674      8672      8675
      8676      8675      8677      8676      8675      8678      8677      8675      8678
      8679      8683      8684      8679      8683      8685      8679      8683      8686
      8680      8679      8681      8680      8679      8682      8680      8679      8683
      8681      8679      8682      8681      8679      8683      8682      8679      8683
      8683      8686      8687      8683      8686      8688      8683      8686      8693
      8684      8683      8685      8684      8683      8686      8685      8683      8686
      8686      8693      8689      8687      8686      8688      8687      8686      8693
      8688      8686      8693      8689      8692      8694      8690      8689      8691
      8690      8689      8692      8690      8689      8693      8691      8689      8692
      8691      8689      8693      8692      8689      8693      8692      8694      8695
      8692      8694      8696      8692      8694      8697      8694      8697      8698
      8694      8697      8699      8694      8697      8705      8695      8694      8696
      8695      8694      8697      8696      8694      8697      8697      8699      8700
      8697      8705      8706      8697      8705      8707      8697      8705      8708
      8698      8697      8699      8698      8697      8705      8699      8697      8705
      8699      8700      8701      8699      8700      8702      8700      8702      8703
      8700      8702      8704      8700      8702      8714      8701      8700      8702
      8702      8714      8715      8702      8714      8716      8702      8714      8717
      8703      8702      8704      8703      8702      8714      8704      8702      8714
      8705      8708      8709      8706      8705      8707      8706      8705      8708
      8707      8705      8708      8708      8709      8710      8708      8709      8711
      8709      8711      8712      8709      8711      8713      8709      8711      8761
      8710      8709      8711      8711      8761      8762      8711      8761      8763
      8711      8761      8764      8712      8711      8713      8712      8711      8761
      8713      8711      8761      8714      8717      8718      8714      8717      8719
      8714      8717      8720      8715      8714      8716      8715      8714      8717
      8716      8714      8717      8717      8720      8721      8717      8720      8722
      8717      8720      8723      8718      8717      8719      8718      8717      8720
      8719      8717      8720      8720      8723      8724      8720      8723      8725
      8720      8723      8726      8721      8720      8722      8721      8720      8723
      8722      8720      8723      8723      8726      8727      8723      8726      8728
      8723      8726      8729      8724      8723      8725      8724      8723      8726
      8725      8723      8726      8726      8729      8730      8726      8729      8731
      8726      8729      8732      8727      8726      8728      8727      8726      8729
      8728      8726      8729      8729      8732      8733      8729      8732      8734
      8730      8729      8731      8730      8729      8732      8731      8729      8732
      8732      8734      8735      8732      8734      8736      8733      8732      8734
      8734      8736      8737      8734      8736      8738      8734      8736      8739
      8735      8734      8736      8736      8739      8740      8736      8739      8741
      8736      8739      8742      8737      8736      8738      8737      8736      8739
      8738      8736      8739      8739      8742      8743      8739      8742      8744
      8739      8742      8745      8740      8739      8741      8740      8739      8742
      8741      8739      8742      8742      8745      8746      8742      8745      8747
      8742      8745      8748      8743      8742      8744      8743      8742      8745
      8744      8742      8745      8745      8748      8749      8745      8748      8750
      8745      8748      8751      8746      8745      8747      8746      8745      8748
      8747      8745      8748      8748      8751      8752      8748      8751      8753
      8748      8751      8754      8749      8748      8750      8749      8748      8751
      8750      8748      8751      8751      8754      8755      8751      8754      8756
      8751      8754      8757      8752      8751      8753      8752      8751      8754
      8753      8751      8754      8754      8757      8758      8754      8757      8759
      8754      8757      8760      8755      8754      8756      8755      8754      8757
      8756      8754      8757      8758      8757      8759      8758      8757      8760
      8759      8757      8760      8761      8764      8765      8761      8764      8766
      8761      8764      8767      8762      8761      8763      8762      8761      8764
      8763      8761      8764      8764      8767      8768      8764      8767      8769
      8764      8767      8770      8765      8764      8766      8765      8764      8767
      8766      8764      8767      8767      8770      8771      8767      8770      8772
      8767      8770      8773      8768      8767      8769      8768      8767      8770
      8769      8767      8770      8770      8773      8774      8770      8773      8775
      8770      8773      8776      8771      8770      8772      8771      8770      8773
      8772      8770      8773      8773      8776      8777      8773      8776      8778
      8773      8776      8779      8774      8773      8775      8774      8773      8776
      8775      8773      8776      8776      8779      8780      8776      8779      8781
      8777      8776      8778      8777      8776      8779      8778      8776      8779
      8779      8781      8782      8779      8781      8783      8780      8779      8781
      8781      8783      8784      8781      8783      8785      8781      8783      8786
      8782      8781      8783      8783      8786      8787      8783      8786      8788
      8783      8786      8789      8784      8783      8785      8784      8783      8786
      8785      8783      8786      8786      8789      8790      8786      8789      8791
      8786      8789      8792      8787      8786      8788      8787      8786      8789
      8788      8786      8789      8789      8792      8793      8789      8792      8794
      8789      8792      8795      8790      8789      8791      8790      8789      8792
      8791      8789      8792      8792      8795      8796      8792      8795      8797
      8792      8795      8798      8793      8792      8794      8793      8792      8795
      8794      8792      8795      8795      8798      8799      8795      8798      8800
      8795      8798      8801      8796      8795      8797      8796      8795      8798
      8797      8795      8798      8798      8801      8802      8798      8801      8803
      8798      8801      8804      8799      8798      8800      8799      8798      8801
      8800      8798      8801      8801      8804      8805      8801      8804      8806
      8801      8804      8807      8802      8801      8803      8802      8801      8804
      8803      8801      8804      8805      8804      8806      8805      8804      8807
      8806      8804      8807      8808      8810      8811      8808      8812      8813
      8808      8812      8814      8808      8812      8815      8808      8854      8851
      8808      8854      8855      8808      8854      8856      8809      8808      8810
      8809      8808      8812      8809      8808      8854      8810      8808      8812
      8810      8808      8854      8812      8808      8854      8812      8815      8816
      8812      8815      8846      8813      8812      8814      8813      8812      8815
      8814      8812      8815      8815      8816      8817      8815      8816      8818
      8815      8846      8844      8815      8846      8847      8815      8846      8851
      8816      8815      8846      8816      8818      8819      8816      8818      8820
      8816      8818      8821      8817      8816      8818      8818      8821      8822
      8818      8821      8823      8818      8821      8844      8819      8818      8820
      8819      8818      8821      8820      8818      8821      8821      8823      8824
      8821      8823      8825      8821      8823      8833      8821      8844      8841
      8821      8844      8845      8821      8844      8846      8822      8821      8823
      8822      8821      8844      8823      8821      8844      8823      8825      8826
      8823      8825      8827      8823      8825      8828      8823      8833      8831
      8823      8833      8834      8823      8833      8838      8824      8823      8825
      8824      8823      8833      8825      8823      8833      8825      8828      8829
      8825      8828      8830      8825      8828      8831      8826      8825      8827
      8826      8825      8828      8827      8825      8828      8828      8831      8832
      8828      8831      8833      8828      8831      8857      8829      8828      8830
      8829      8828      8831      8830      8828      8831      8831      8833      8834
      8831      8833      8838      8831      8857      8858      8831      8857      8859
      8831      8857      8863      8832      8831      8833      8832      8831      8857
      8833      8831      8857      8833      8834      8835      8833      8834      8836
      8833      8834      8837      8833      8838      8839      8833      8838      8840
      8833      8838      8841      8834      8833      8838      8835      8834      8836
      8835      8834      8837      8836      8834      8837      8838      8841      8842
      8838      8841      8843      8838      8841      8844      8839      8838      8840
      8839      8838      8841      8840      8838      8841      8841      8844      8845
      8841      8844      8846      8842      8841      8843      8842      8841      8844
      8843      8841      8844      8844      8846      8847      8844      8846      8851
      8845      8844      8846      8846      8847      8848      8846      8847      8849
      8846      8847      8850      8846      8851      8852      8846      8851      8853
      8846      8851      8854      8847      8846      8851      8848      8847      8849
      8848      8847      8850      8849      8847      8850      8851      8854      8855
      8851      8854      8856      8852      8851      8853      8852      8851      8854
      8853      8851      8854      8855      8854      8856      8857      8859      8860
      8857      8859      8861      8857      8859      8862      8857      8863      8864
      8857      8863      8865      8857      8863      8866      8858      8857      8859
      8858      8857      8863      8859      8857      8863      8860      8859      8861
      8860      8859      8862      8861      8859      8862      8863      8866      8867
      8863      8866      8868      8863      8866      8869      8864      8863      8865
      8864      8863      8866      8865      8863      8866      8866      8869      8870
      8866      8869      8871      8866      8869      8872      8867      8866      8868
      8867      8866      8869      8868      8866      8869      8869      8872      8873
      8869      8872      8874      8869      8872      8878      8870      8869      8871
      8870      8869      8872      8871      8869      8872      8872      8874      8875
      8872      8874      8876      8872      8874      8877      8872      8878      8879
      8872      8878      8880      8872      8878      8881      8873      8872      8874
      8873      8872      8878      8874      8872      8878      8875      8874      8876
      8875      8874      8877      8876      8874      8877      8879      8878      8880
      8879      8878      8881      8880      8878      8881      8882      8886      8887
      8882      8886      8888      8882      8886      8889      8883      8882      8884
      8883      8882      8885      8883      8882      8886      8884      8882      8885
      8884      8882      8886      8885      8882      8886      8886      8889      8890
      8886      8889      8891      8886      8889      8896      8887      8886      8888
      8887      8886      8889      8888      8886      8889      8889      8896      8892
      8890      8889      8891      8890      8889      8896      8891      8889      8896
      8892      8895      8897      8893      8892      8894      8893      8892      8895
      8893      8892      8896      8894      8892      8895      8894      8892      8896
      8895      8892      8896      8895      8897      8898      8895      8897      8899
      8895      8897      8900      8897      8900      8901      8897      8900      8902
      8897      8900      8908      8898      8897      8899      8898      8897      8900
      8899      8897      8900      8900      8902      8903      8900      8908      8909
      8900      8908      8910      8900      8908      8911      8901      8900      8902
      8901      8900      8908      8902      8900      8908      8902      8903      8904
      8902      8903      8905      8903      8905      8906      8903      8905      8907
      8903      8905      8917      8904      8903      8905      8905      8917      8918
      8905      8917      8919      8905      8917      8920      8906      8905      8907
      8906      8905      8917      8907      8905      8917      8908      8911      8912
      8909      8908      8910      8909      8908      8911      8910      8908      8911
      8911      8912      8913      8911      8912      8914      8912      8914      8915
      8912      8914      8916      8912      8914      8964      8913      8912      8914
      8914      8964      8965      8914      8964      8966      8914      8964      8967
      8915      8914      8916      8915      8914      8964      8916      8914      8964
      8917      8920      8921      8917      8920      8922      8917      8920      8923
      8918      8917      8919      8918      8917      8920      8919      8917      8920
      8920      8923      8924      8920      8923      8925      8920      8923      8926
      8921      8920      8922      8921      8920      8923      8922      8920      8923
      8923      8926      8927      8923      8926      8928      8923      8926      8929
      8924      8923      8925      8924      8923      8926      8925      8923      8926
      8926      8929      8930      8926      8929      8931      8926      8929      8932
      8927      8926      8928      8927      8926      8929      8928      8926      8929
      8929      8932      8933      8929      8932      8934      8929      8932      8935
      8930      8929      8931      8930      8929      8932      8931      8929      8932
      8932      8935      8936      8932      8935      8937      8933      8932      8934
      8933      8932      8935      8934      8932      8935      8935      8937      8938
      8935      8937      8939      8936      8935      8937      8937      8939      8940
      8937      8939      8941      8937      8939      8942      8938      8937      8939
      8939      8942      8943      8939      8942      8944      8939      8942      8945
      8940      8939      8941      8940      8939      8942      8941      8939      8942
      8942      8945      8946      8942      8945      8947      8942      8945      8948
      8943      8942      8944      8943      8942      8945      8944      8942      8945
      8945      8948      8949      8945      8948      8950      8945      8948      8951
      8946      8945      8947      8946      8945      8948      8947      8945      8948
      8948      8951      8952      8948      8951      8953      8948      8951      8954
      8949      8948      8950      8949      8948      8951      8950      8948      8951
      8951      8954      8955      8951      8954      8956      8951      8954      8957
      8952      8951      8953      8952      8951      8954      8953      8951      8954
      8954      8957      8958      8954      8957      8959      8954      8957      8960
      8955      8954      8956      8955      8954      8957      8956      8954      8957
      8957      8960      8961      8957      8960      8962      8957      8960      8963
      8958      8957      8959      8958      8957      8960      8959      8957      8960
      8961      8960      8962      8961      8960      8963      8962      8960      8963
      8964      8967      8968      8964      8967      8969      8964      8967      8970
      8965      8964      8966      8965      8964      8967      8966      8964      8967
      8967      8970      8971      8967      8970      8972      8967      8970      8973
      8968      8967      8969      8968      8967      8970      8969      8967      8970
      8970      8973      8974      8970      8973      8975      8970      8973      8976
      8971      8970      8972      8971      8970      8973      8972      8970      8973
      8973      8976      8977      8973      8976      8978      8973      8976      8979
      8974      8973      8975      8974      8973      8976      8975      8973      8976
      8976      8979      8980      8976      8979      8981      8976      8979      8982
      8977      8976      8978      8977      8976      8979      8978      8976      8979
      8979      8982      8983      8979      8982      8984      8980      8979      8981
      8980      8979      8982      8981      8979      8982      8982      8984      8985
      8982      8984      8986      8983      8982      8984      8984      8986      8987
      8984      8986      8988      8984      8986      8989      8985      8984      8986
      8986      8989      8990      8986      8989      8991      8986      8989      8992
      8987      8986      8988      8987      8986      8989      8988      8986      8989
      8989      8992      8993      8989      8992      8994      8989      8992      8995
      8990      8989      8991      8990      8989      8992      8991      8989      8992
      8992      8995      8996      8992      8995      8997      8992      8995      8998
      8993      8992      8994      8993      8992      8995      8994      8992      8995
      8995      8998      8999      8995      8998      9000      8995      8998      9001
      8996      8995      8997      8996      8995      8998      8997      8995      8998
      8998      9001      9002      8998      9001      9003      8998      9001      9004
      8999      8998      9000      8999      8998      9001      9000      8998      9001
      9001      9004      9005      9001      9004      9006      9001      9004      9007
      9002      9001      9003      9002      9001      9004      9003      9001      9004
      9004      9007      9008      9004      9007      9009      9004      9007      9010
      9005      9004      9006      9005      9004      9007      9006      9004      9007
      9008      9007      9009      9008      9007      9010      9009      9007      9010
      9011      9013      9014      9011      9015      9016      9011      9015      9017
      9011      9015      9018      9011      9057      9054      9011      9057      9058
      9011      9057      9059      9012      9011      9013      9012      9011      9015
      9012      9011      9057      9013      9011      9015      9013      9011      9057
      9015      9011      9057      9015      9018      9019      9015      9018      9049
      9016      9015      9017      9016      9015      9018      9017      9015      9018
      9018      9019      9020      9018      9019      9021      9018      9049      9047
      9018      9049      9050      9018      9049      9054      9019      9018      9049
      9019      9021      9022      9019      9021      9023      9019      9021      9024
      9020      9019      9021      9021      9024      9025      9021      9024      9026
      9021      9024      9047      9022      9021      9023      9022      9021      9024
      9023      9021      9024      9024      9026      9027      9024      9026      9028
      9024      9026      9036      9024      9047      9044      9024      9047      9048
      9024      9047      9049      9025      9024      9026      9025      9024      9047
      9026      9024      9047      9026      9028      9029      9026      9028      9030
      9026      9028      9031      9026      9036      9034      9026      9036      9037
      9026      9036      9041      9027      9026      9028      9027      9026      9036
      9028      9026      9036      9028      9031      9032      9028      9031      9033
      9028      9031      9034      9029      9028      9030      9029      9028      9031
      9030      9028      9031      9031      9034      9035      9031      9034      9036
      9031      9034      9060      9032      9031      9033      9032      9031      9034
      9033      9031      9034      9034      9036      9037      9034      9036      9041
      9034      9060      9061      9034      9060      9062      9034      9060      9066
      9035      9034      9036      9035      9034      9060      9036      9034      9060
      9036      9037      9038      9036      9037      9039      9036      9037      9040
      9036      9041      9042      9036      9041      9043      9036      9041      9044
      9037      9036      9041      9038      9037      9039      9038      9037      9040
      9039      9037      9040      9041      9044      9045      9041      9044      9046
      9041      9044      9047      9042      9041      9043      9042      9041      9044
      9043      9041      9044      9044      9047      9048      9044      9047      9049
      9045      9044      9046      9045      9044      9047      9046      9044      9047
      9047      9049      9050      9047      9049      9054      9048      9047      9049
      9049      9050      9051      9049      9050      9052      9049      9050      9053
      9049      9054      9055      9049      9054      9056      9049      9054      9057
      9050      9049      9054      9051      9050      9052      9051      9050      9053
      9052      9050      9053      9054      9057      9058      9054      9057      9059
      9055      9054      9056      9055      9054      9057      9056      9054      9057
      9058      9057      9059      9060      9062      9063      9060      9062      9064
      9060      9062      9065      9060      9066      9067      9060      9066      9068
      9060      9066      9069      9061      9060      9062      9061      9060      9066
      9062      9060      9066      9063      9062      9064      9063      9062      9065
      9064      9062      9065      9066      9069      9070      9066      9069      9071
      9066      9069      9072      9067      9066      9068      9067      9066      9069
      9068      9066      9069      9069      9072      9073      9069      9072      9074
      9069      9072      9075      9070      9069      9071      9070      9069      9072
      9071      9069      9072      9072      9075      9076      9072      9075      9077
      9072      9075      9081      9073      9072      9074      9073      9072      9075
      9074      9072      9075      9075      9077      9078      9075      9077      9079
      9075      9077      9080      9075      9081      9082      9075      9081      9083
      9075      9081      9084      9076      9075      9077      9076      9075      9081
      9077      9075      9081      9078      9077      9079      9078      9077      9080
      9079      9077      9080      9082      9081      9083      9082      9081      9084
      9083      9081      9084      9085      9087      9088      9085      9089      9090
      9085      9089      9091      9085      9089      9092      9085      9131      9128
      9085      9131      9132      9085      9131      9133      9086      9085      9087
      9086      9085      9089      9086      9085      9131      9087      9085      9089
      9087      9085      9131      9089      9085      9131      9089      9092      9093
      9089      9092      9123      9090      9089      9091      9090      9089      9092
      9091      9089      9092      9092      9093      9094      9092      9093      9095
      9092      9123      9121      9092      9123      9124      9092      9123      9128
      9093      9092      9123      9093      9095      9096      9093      9095      9097
      9093      9095      9098      9094      9093      9095      9095      9098      9099
      9095      9098      9100      9095      9098      9121      9096      9095      9097
      9096      9095      9098      9097      9095      9098      9098      9100      9101
      9098      9100      9102      9098      9100      9110      9098      9121      9118
      9098      9121      9122      9098      9121      9123      9099      9098      9100
      9099      9098      9121      9100      9098      9121      9100      9102      9103
      9100      9102      9104      9100      9102      9105      9100      9110      9108
      9100      9110      9111      9100      9110      9115      9101      9100      9102
      9101      9100      9110      9102      9100      9110      9102      9105      9106
      9102      9105      9107      9102      9105      9108      9103      9102      9104
      9103      9102      9105      9104      9102      9105      9105      9108      9109
      9105      9108      9110      9105      9108      9134      9106      9105      9107
      9106      9105      9108      9107      9105      9108      9108      9110      9111
      9108      9110      9115      9108      9134      9135      9108      9134      9136
      9108      9134      9140      9109      9108      9110      9109      9108      9134
      9110      9108      9134      9110      9111      9112      9110      9111      9113
      9110      9111      9114      9110      9115      9116      9110      9115      9117
      9110      9115      9118      9111      9110      9115      9112      9111      9113
      9112      9111      9114      9113      9111      9114      9115      9118      9119
      9115      9118      9120      9115      9118      9121      9116      9115      9117
      9116      9115      9118      9117      9115      9118      9118      9121      9122
      9118      9121      9123      9119      9118      9120      9119      9118      9121
      9120      9118      9121      9121      9123      9124      9121      9123      9128
      9122      9121      9123      9123      9124      9125      9123      9124      9126
      9123      9124      9127      9123      9128      9129      9123      9128      9130
      9123      9128      9131      9124      9123      9128      9125      9124      9126
      9125      9124      9127      9126      9124      9127      9128      9131      9132
      9128      9131      9133      9129      9128      9130      9129      9128      9131
      9130      9128      9131      9132      9131      9133      9134      9136      9137
      9134      9136      9138      9134      9136      9139      9134      9140      9141
      9134      9140      9142      9134      9140      9143      9135      9134      9136
      9135      9134      9140      9136      9134      9140      9137      9136      9138
      9137      9136      9139      9138      9136      9139      9140      9143      9144
      9140      9143      9145      9140      9143      9146      9141      9140      9142
      9141      9140      9143      9142      9140      9143      9143      9146      9147
      9143      9146      9148      9143      9146      9149      9144      9143      9145
      9144      9143      9146      9145      9143      9146      9146      9149      9150
      9146      9149      9151      9146      9149      9155      9147      9146      9148
      9147      9146      9149      9148      9146      9149      9149      9151      9152
      9149      9151      9153      9149      9151      9154      9149      9155      9156
      9149      9155      9157      9149      9155      9158      9150      9149      9151
      9150      9149      9155      9151      9149      9155      9152      9151      9153
      9152      9151      9154      9153      9151      9154      9156      9155      9157
      9156      9155      9158      9157      9155      9158      9159      9163      9164
      9159      9163      9165      9159      9163      9166      9160      9159      9161
      9160      9159      9162      9160      9159      9163      9161      9159      9162
      9161      9159      9163      9162      9159      9163      9163      9166      9167
      9163      9166      9168      9163      9166      9173      9164      9163      9165
      9164      9163      9166      9165      9163      9166      9166      9173      9169
      9167      9166      9168      9167      9166      9173      9168      9166      9173
      9169      9172      9174      9170      9169      9171      9170      9169      9172
      9170      9169      9173      9171      9169      9172      9171      9169      9173
      9172      9169      9173      9172      9174      9175      9172      9174      9176
      9172      9174      9177      9174      9177      9178      9174      9177      9179
      9174      9177      9185      9175      9174      9176      9175      9174      9177
      9176      9174      9177      9177      9179      9180      9177      9185      9186
      9177      9185      9187      9177      9185      9188      9178      9177      9179
      9178      9177      9185      9179      9177      9185      9179      9180      9181
      9179      9180      9182      9180      9182      9183      9180      9182      9184
      9180      9182      9194      9181      9180      9182      9182      9194      9195
      9182      9194      9196      9182      9194      9197      9183      9182      9184
      9183      9182      9194      9184      9182      9194      9185      9188      9189
      9186      9185      9187      9186      9185      9188      9187      9185      9188
      9188      9189      9190      9188      9189      9191      9189      9191      9192
      9189      9191      9193      9189      9191      9241      9190      9189      9191
      9191      9241      9242      9191      9241      9243      9191      9241      9244
      9192      9191      9193      9192      9191      9241      9193      9191      9241
      9194      9197      9198      9194      9197      9199      9194      9197      9200
      9195      9194      9196      9195      9194      9197      9196      9194      9197
      9197      9200      9201      9197      9200      9202      9197      9200      9203
      9198      9197      9199      9198      9197      9200      9199      9197      9200
      9200      9203      9204      9200      9203      9205      9200      9203      9206
      9201      9200      9202      9201      9200      9203      9202      9200      9203
      9203      9206      9207      9203      9206      9208      9203      9206      9209
      9204      9203      9205      9204      9203      9206      9205      9203      9206
      9206      9209      9210      9206      9209      9211      9206      9209      9212
      9207      9206      9208      9207      9206      9209      9208      9206      9209
      9209      9212      9213      9209      9212      9214      9210      9209      9211
      9210      9209      9212      9211      9209      9212      9212      9214      9215
      9212      9214      9216      9213      9212      9214      9214      9216      9217
      9214      9216      9218      9214      9216      9219      9215      9214      9216
      9216      9219      9220      9216      9219      9221      9216      9219      9222
      9217      9216      9218      9217      9216      9219      9218      9216      9219
      9219      9222      9223      9219      9222      9224      9219      9222      9225
      9220      9219      9221      9220      9219      9222      9221      9219      9222
      9222      9225      9226      9222      9225      9227      9222      9225      9228
      9223      9222      9224      9223      9222      9225      9224      9222      9225
      9225      9228      9229      9225      9228      9230      9225      9228      9231
      9226      9225      9227      9226      9225      9228      9227      9225      9228
      9228      9231      9232      9228      9231      9233      9228      9231      9234
      9229      9228      9230      9229      9228      9231      9230      9228      9231
      9231      9234      9235      9231      9234      9236      9231      9234      9237
      9232      9231      9233      9232      9231      9234      9233      9231      9234
      9234      9237      9238      9234      9237      9239      9234      9237      9240
      9235      9234      9236      9235      9234      9237      9236      9234      9237
      9238      9237      9239      9238      9237      9240      9239      9237      9240
      9241      9244      9245      9241      9244      9246      9241      9244      9247
      9242      9241      9243      9242      9241      9244      9243      9241      9244
      9244      9247      9248      9244      9247      9249      9244      9247      9250
      9245      9244      9246      9245      9244      9247      9246      9244      9247
      9247      9250      9251      9247      9250      9252      9247      9250      9253
      9248      9247      9249      9248      9247      9250      9249      9247      9250
      9250      9253      9254      9250      9253      9255      9250      9253      9256
      9251      9250      9252      9251      9250      9253      9252      9250      9253
      9253      9256      9257      9253      9256      9258      9253      9256      9259
      9254      9253      9255      9254      9253      9256      9255      9253      9256
      9256      9259      9260      9256      9259      9261      9257      9256      9258
      9257      9256      9259      9258      9256      9259      9259      9261      9262
      9259      9261      9263      9260      9259      9261      9261      9263      9264
      9261      9263      9265      9261      9263      9266      9262      9261      9263
      9263      9266      9267      9263      9266      9268      9263      9266      9269
      9264      9263      9265      9264      9263      9266      9265      9263      9266
      9266      9269      9270      9266      9269      9271      9266      9269      9272
      9267      9266      9268      9267      9266      9269      9268      9266      9269
      9269      9272      9273      9269      9272      9274      9269      9272      9275
      9270      9269      9271      9270      9269      9272      9271      9269      9272
      9272      9275      9276      9272      9275      9277      9272      9275      9278
      9273      9272      9274      9273      9272      9275      9274      9272      9275
      9275      9278      9279      9275      9278      9280      9275      9278      9281
      9276      9275      9277      9276      9275      9278      9277      9275      9278
      9278      9281      9282      9278      9281      9283      9278      9281      9284
      9279      9278      9280      9279      9278      9281      9280      9278      9281
      9281      9284      9285      9281      9284      9286      9281      9284      9287
      9282      9281      9283      9282      9281      9284      9283      9281      9284
      9285      9284      9286      9285      9284      9287      9286      9284      9287
      9288      9289      9290      9288      9289      9291      9288      9289      9304
      9288      9292      9293      9288      9292      9294      9288      9292      9295
      9288      9296      9297      9288      9296      9298      9288      9296      9299
      9288      9300      9301      9288      9300      9302      9288      9300      9303
      9289      9288      9292      9289      9288      9296      9289      9288      9300
      9289      9304      9305      9289      9304      9306      9289      9304      9310
      9290      9289      9291      9290      9289      9304      9291      9289      9304
      9292      9288      9296      9292      9288      9300      9293      9292      9294
      9293      9292      9295      9294      9292      9295      9296      9288      9300
      9297      9296      9298      9297      9296      9299      9298      9296      9299
      9301      9300      9302      9301      9300      9303      9302      9300      9303
      9304      9310      9307      9305      9304      9306      9305      9304      9310
      9306      9304      9310      9307      9311      9312      9308      9307      9309
      9308      9307      9310      9308      9307      9311      9309      9307      9310
      9309      9307      9311      9310      9307      9311      9311      9312      9313
      9311      9312      9314      9311      9312      9315      9312      9315      9316
      9312      9315      9317      9312      9315      9323      9313      9312      9314
      9313      9312      9315      9314      9312      9315      9315      9317      9318
      9315      9323      9324      9315      9323      9325      9315      9323      9326
      9316      9315      9317      9316      9315      9323      9317      9315      9323
      9317      9318      9319      9317      9318      9320      9318      9320      9321
      9318      9320      9322      9318      9320      9332      9319      9318      9320
      9320      9332      9333      9320      9332      9334      9320      9332      9335
      9321      9320      9322      9321      9320      9332      9322      9320      9332
      9323      9326      9327      9324      9323      9325      9324      9323      9326
      9325      9323      9326      9326      9327      9328      9326      9327      9329
      9327      9329      9330      9327      9329      9331      9327      9329      9379
      9328      9327      9329      9329      9379      9380      9329      9379      9381
      9329      9379      9382      9330      9329      9331      9330      9329      9379
      9331      9329      9379      9332      9335      9336      9332      9335      9337
      9332      9335      9338      9333      9332      9334      9333      9332      9335
      9334      9332      9335      9335      9338      9339      9335      9338      9340
      9335      9338      9341      9336      9335      9337      9336      9335      9338
      9337      9335      9338      9338      9341      9342      9338      9341      9343
      9338      9341      9344      9339      9338      9340      9339      9338      9341
      9340      9338      9341      9341      9344      9345      9341      9344      9346
      9341      9344      9347      9342      9341      9343      9342      9341      9344
      9343      9341      9344      9344      9347      9348      9344      9347      9349
      9344      9347      9350      9345      9344      9346      9345      9344      9347
      9346      9344      9347      9347      9350      9351      9347      9350      9352
      9348      9347      9349      9348      9347      9350      9349      9347      9350
      9350      9352      9353      9350      9352      9354      9351      9350      9352
      9352      9354      9355      9352      9354      9356      9352      9354      9357
      9353      9352      9354      9354      9357      9358      9354      9357      9359
      9354      9357      9360      9355      9354      9356      9355      9354      9357
      9356      9354      9357      9357      9360      9361      9357      9360      9362
      9357      9360      9363      9358      9357      9359      9358      9357      9360
      9359      9357      9360      9360      9363      9364      9360      9363      9365
      9360      9363      9366      9361      9360      9362      9361      9360      9363
      9362      9360      9363      9363      9366      9367      9363      9366      9368
      9363      9366      9369      9364      9363      9365      9364      9363      9366
      9365      9363      9366      9366      9369      9370      9366      9369      9371
      9366      9369      9372      9367      9366      9368      9367      9366      9369
      9368      9366      9369      9369      9372      9373      9369      9372      9374
      9369      9372      9375      9370      9369      9371      9370      9369      9372
      9371      9369      9372      9372      9375      9376      9372      9375      9377
      9372      9375      9378      9373      9372      9374      9373      9372      9375
      9374      9372      9375      9376      9375      9377      9376      9375      9378
      9377      9375      9378      9379      9382      9383      9379      9382      9384
      9379      9382      9385      9380      9379      9381      9380      9379      9382
      9381      9379      9382      9382      9385      9386      9382      9385      9387
      9382      9385      9388      9383      9382      9384      9383      9382      9385
      9384      9382      9385      9385      9388      9389      9385      9388      9390
      9385      9388      9391      9386      9385      9387      9386      9385      9388
      9387      9385      9388      9388      9391      9392      9388      9391      9393
      9388      9391      9394      9389      9388      9390      9389      9388      9391
      9390      9388      9391      9391      9394      9395      9391      9394      9396
      9391      9394      9397      9392      9391      9393      9392      9391      9394
      9393      9391      9394      9394      9397      9398      9394      9397      9399
      9395      9394      9396      9395      9394      9397      9396      9394      9397
      9397      9399      9400      9397      9399      9401      9398      9397      9399
      9399      9401      9402      9399      9401      9403      9399      9401      9404
      9400      9399      9401      9401      9404      9405      9401      9404      9406
      9401      9404      9407      9402      9401      9403      9402      9401      9404
      9403      9401      9404      9404      9407      9408      9404      9407      9409
      9404      9407      9410      9405      9404      9406      9405      9404      9407
      9406      9404      9407      9407      9410      9411      9407      9410      9412
      9407      9410      9413      9408      9407      9409      9408      9407      9410
      9409      9407      9410      9410      9413      9414      9410      9413      9415
      9410      9413      9416      9411      9410      9412      9411      9410      9413
      9412      9410      9413      9413      9416      9417      9413      9416      9418
      9413      9416      9419      9414      9413      9415      9414      9413      9416
      9415      9413      9416      9416      9419      9420      9416      9419      9421
      9416      9419      9422      9417      9416      9418      9417      9416      9419
      9418      9416      9419      9419      9422      9423      9419      9422      9424
      9419      9422      9425      9420      9419      9421      9420      9419      9422
      9421      9419      9422      9423      9422      9424      9423      9422      9425
      9424      9422      9425      9426      9427      9428      9426      9427      9429
      9426      9427      9442      9426      9430      9431      9426      9430      9432
      9426      9430      9433      9426      9434      9435      9426      9434      9436
      9426      9434      9437      9426      9438      9439      9426      9438      9440
      9426      9438      9441      9427      9426      9430      9427      9426      9434
      9427      9426      9438      9427      9442      9443      9427      9442      9444
      9427      9442      9448      9428      9427      9429      9428      9427      9442
      9429      9427      9442      9430      9426      9434      9430      9426      9438
      9431      9430      9432      9431      9430      9433      9432      9430      9433
      9434      9426      9438      9435      9434      9436      9435      9434      9437
      9436      9434      9437      9439      9438      9440      9439      9438      9441
      9440      9438      9441      9442      9448      9445      9443      9442      9444
      9443      9442      9448      9444      9442      9448      9445      9449      9450
      9446      9445      9447      9446      9445      9448      9446      9445      9449
      9447      9445      9448      9447      9445      9449      9448      9445      9449
      9449      9450      9451      9449      9450      9452      9449      9450      9453
      9450      9453      9454      9450      9453      9455      9450      9453      9461
      9451      9450      9452      9451      9450      9453      9452      9450      9453
      9453      9455      9456      9453      9461      9462      9453      9461      9463
      9453      9461      9464      9454      9453      9455      9454      9453      9461
      9455      9453      9461      9455      9456      9457      9455      9456      9458
      9456      9458      9459      9456      9458      9460      9456      9458      9470
      9457      9456      9458      9458      9470      9471      9458      9470      9472
      9458      9470      9473      9459      9458      9460      9459      9458      9470
      9460      9458      9470      9461      9464      9465      9462      9461      9463
      9462      9461      9464      9463      9461      9464      9464      9465      9466
      9464      9465      9467      9465      9467      9468      9465      9467      9469
      9465      9467      9517      9466      9465      9467      9467      9517      9518
      9467      9517      9519      9467      9517      9520      9468      9467      9469
      9468      9467      9517      9469      9467      9517      9470      9473      9474
      9470      9473      9475      9470      9473      9476      9471      9470      9472
      9471      9470      9473      9472      9470      9473      9473      9476      9477
      9473      9476      9478      9473      9476      9479      9474      9473      9475
      9474      9473      9476      9475      9473      9476      9476      9479      9480
      9476      9479      9481      9476      9479      9482      9477      9476      9478
      9477      9476      9479      9478      9476      9479      9479      9482      9483
      9479      9482      9484      9479      9482      9485      9480      9479      9481
      9480      9479      9482      9481      9479      9482      9482      9485      9486
      9482      9485      9487      9482      9485      9488      9483      9482      9484
      9483      9482      9485      9484      9482      9485      9485      9488      9489
      9485      9488      9490      9486      9485      9487      9486      9485      9488
      9487      9485      9488      9488      9490      9491      9488      9490      9492
      9489      9488      9490      9490      9492      9493      9490      9492      9494
      9490      9492      9495      9491      9490      9492      9492      9495      9496
      9492      9495      9497      9492      9495      9498      9493      9492      9494
      9493      9492      9495      9494      9492      9495      9495      9498      9499
      9495      9498      9500      9495      9498      9501      9496      9495      9497
      9496      9495      9498      9497      9495      9498      9498      9501      9502
      9498      9501      9503      9498      9501      9504      9499      9498      9500
      9499      9498      9501      9500      9498      9501      9501      9504      9505
      9501      9504      9506      9501      9504      9507      9502      9501      9503
      9502      9501      9504      9503      9501      9504      9504      9507      9508
      9504      9507      9509      9504      9507      9510      9505      9504      9506
      9505      9504      9507      9506      9504      9507      9507      9510      9511
      9507      9510      9512      9507      9510      9513      9508      9507      9509
      9508      9507      9510      9509      9507      9510      9510      9513      9514
      9510      9513      9515      9510      9513      9516      9511      9510      9512
      9511      9510      9513      9512      9510      9513      9514      9513      9515
      9514      9513      9516      9515      9513      9516      9517      9520      9521
      9517      9520      9522      9517      9520      9523      9518      9517      9519
      9518      9517      9520      9519      9517      9520      9520      9523      9524
      9520      9523      9525      9520      9523      9526      9521      9520      9522
      9521      9520      9523      9522      9520      9523      9523      9526      9527
      9523      9526      9528      9523      9526      9529      9524      9523      9525
      9524      9523      9526      9525      9523      9526      9526      9529      9530
      9526      9529      9531      9526      9529      9532      9527      9526      9528
      9527      9526      9529      9528      9526      9529      9529      9532      9533
      9529      9532      9534      9529      9532      9535      9530      9529      9531
      9530      9529      9532      9531      9529      9532      9532      9535      9536
      9532      9535      9537      9533      9532      9534      9533      9532      9535
      9534      9532      9535      9535      9537      9538      9535      9537      9539
      9536      9535      9537      9537      9539      9540      9537      9539      9541
      9537      9539      9542      9538      9537      9539      9539      9542      9543
      9539      9542      9544      9539      9542      9545      9540      9539      9541
      9540      9539      9542      9541      9539      9542      9542      9545      9546
      9542      9545      9547      9542      9545      9548      9543      9542      9544
      9543      9542      9545      9544      9542      9545      9545      9548      9549
      9545      9548      9550      9545      9548      9551      9546      9545      9547
      9546      9545      9548      9547      9545      9548      9548      9551      9552
      9548      9551      9553      9548      9551      9554      9549      9548      9550
      9549      9548      9551      9550      9548      9551      9551      9554      9555
      9551      9554      9556      9551      9554      9557      9552      9551      9553
      9552      9551      9554      9553      9551      9554      9554      9557      9558
      9554      9557      9559      9554      9557      9560      9555      9554      9556
      9555      9554      9557      9556      9554      9557      9557      9560      9561
      9557      9560      9562      9557      9560      9563      9558      9557      9559
      9558      9557      9560      9559      9557      9560      9561      9560      9562
      9561      9560      9563      9562      9560      9563      9564      9568      9569
      9564      9568      9570      9564      9568      9571      9565      9564      9566
      9565      9564      9567      9565      9564      9568      9566      9564      9567
      9566      9564      9568      9567      9564      9568      9568      9571      9572
      9568      9571      9573      9568      9571      9578      9569      9568      9570
      9569      9568      9571      9570      9568      9571      9571      9578      9574
      9572      9571      9573      9572      9571      9578      9573      9571      9578
      9574      9577      9579      9575      9574      9576      9575      9574      9577
      9575      9574      9578      9576      9574      9577      9576      9574      9578
      9577      9574      9578      9577      9579      9580      9577      9579      9581
      9577      9579      9582      9579      9582      9583      9579      9582      9584
      9579      9582      9590      9580      9579      9581      9580      9579      9582
      9581      9579      9582      9582      9584      9585      9582      9590      9591
      9582      9590      9592      9582      9590      9593      9583      9582      9584
      9583      9582      9590      9584      9582      9590      9584      9585      9586
      9584      9585      9587      9585      9587      9588      9585      9587      9589
      9585      9587      9599      9586      9585      9587      9587      9599      9600
      9587      9599      9601      9587      9599      9602      9588      9587      9589
      9588      9587      9599      9589      9587      9599      9590      9593      9594
      9591      9590      9592      9591      9590      9593      9592      9590      9593
      9593      9594      9595      9593      9594      9596      9594      9596      9597
      9594      9596      9598      9594      9596      9646      9595      9594      9596
      9596      9646      9647      9596      9646      9648      9596      9646      9649
      9597      9596      9598      9597      9596      9646      9598      9596      9646
      9599      9602      9603      9599      9602      9604      9599      9602      9605
      9600      9599      9601      9600      9599      9602      9601      9599      9602
      9602      9605      9606      9602      9605      9607      9602      9605      9608
      9603      9602      9604      9603      9602      9605      9604      9602      9605
      9605      9608      9609      9605      9608      9610      9605      9608      9611
      9606      9605      9607      9606      9605      9608      9607      9605      9608
      9608      9611      9612      9608      9611      9613      9608      9611      9614
      9609      9608      9610      9609      9608      9611      9610      9608      9611
      9611      9614      9615      9611      9614      9616      9611      9614      9617
      9612      9611      9613      9612      9611      9614      9613      9611      9614
      9614      9617      9618      9614      9617      9619      9615      9614      9616
      9615      9614      9617      9616      9614      9617      9617      9619      9620
      9617      9619      9621      9618      9617      9619      9619      9621      9622
      9619      9621      9623      9619      9621      9624      9620      9619      9621
      9621      9624      9625      9621      9624      9626      9621      9624      9627
      9622      9621      9623      9622      9621      9624      9623      9621      9624
      9624      9627      9628      9624      9627      9629      9624      9627      9630
      9625      9624      9626      9625      9624      9627      9626      9624      9627
      9627      9630      9631      9627      9630      9632      9627      9630      9633
      9628      9627      9629      9628      9627      9630      9629      9627      9630
      9630      9633      9634      9630      9633      9635      9630      9633      9636
      9631      9630      9632      9631      9630      9633      9632      9630      9633
      9633      9636      9637      9633      9636      9638      9633      9636      9639
      9634      9633      9635      9634      9633      9636      9635      9633      9636
      9636      9639      9640      9636      9639      9641      9636      9639      9642
      9637      9636      9638      9637      9636      9639      9638      9636      9639
      9639      9642      9643      9639      9642      9644      9639      9642      9645
      9640      9639      9641      9640      9639      9642      9641      9639      9642
      9643      9642      9644      9643      9642      9645      9644      9642      9645
      9646      9649      9650      9646      9649      9651      9646      9649      9652
      9647      9646      9648      9647      9646      9649      9648      9646      9649
      9649      9652      9653      9649      9652      9654      9649      9652      9655
      9650      9649      9651      9650      9649      9652      9651      9649      9652
      9652      9655      9656      9652      9655      9657      9652      9655      9658
      9653      9652      9654      9653      9652      9655      9654      9652      9655
      9655      9658      9659      9655      9658      9660      9655      9658      9661
      9656      9655      9657      9656      9655      9658      9657      9655      9658
      9658      9661      9662      9658      9661      9663      9658      9661      9664
      9659      9658      9660      9659      9658      9661      9660      9658      9661
      9661      9664      9665      9661      9664      9666      9662      9661      9663
      9662      9661      9664      9663      9661      9664      9664      9666      9667
      9664      9666      9668      9665      9664      9666      9666      9668      9669
      9666      9668      9670      9666      9668      9671      9667      9666      9668
      9668      9671      9672      9668      9671      9673      9668      9671      9674
      9669      9668      9670      9669      9668      9671      9670      9668      9671
      9671      9674      9675      9671      9674      9676      9671      9674      9677
      9672      9671      9673      9672      9671      9674      9673      9671      9674
      9674      9677      9678      9674      9677      9679      9674      9677      9680
      9675      9674      9676      9675      9674      9677      9676      9674      9677
      9677      9680      9681      9677      9680      9682      9677      9680      9683
      9678      9677      9679      9678      9677      9680      9679      9677      9680
      9680      9683      9684      9680      9683      9685      9680      9683      9686
      9681      9680      9682      9681      9680      9683      9682      9680      9683
      9683      9686      9687      9683      9686      9688      9683      9686      9689
      9684      9683      9685      9684      9683      9686      9685      9683      9686
      9686      9689      9690      9686      9689      9691      9686      9689      9692
      9687      9686      9688      9687      9686      9689      9688      9686      9689
      9690      9689      9691      9690      9689      9692      9691      9689      9692
      9693      9697      9698      9693      9697      9699      9693      9697      9700
      9694      9693      9695      9694      9693      9696      9694      9693      9697
      9695      9693      9696      9695      9693      9697      9696      9693      9697
      9697      9700      9701      9697      9700      9702      9697      9700      9707
      9698      9697      9699      9698      9697      9700      9699      9697      9700
      9700      9707      9703      9701      9700      9702      9701      9700      9707
      9702      9700      9707      9703      9706      9708      9704      9703      9705
      9704      9703      9706      9704      9703      9707      9705      9703      9706
      9705      9703      9707      9706      9703      9707      9706      9708      9709
      9706      9708      9710      9706      9708      9711      9708      9711      9712
      9708      9711      9713      9708      9711      9719      9709      9708      9710
      9709      9708      9711      9710      9708      9711      9711      9713      9714
      9711      9719      9720      9711      9719      9721      9711      9719      9722
      9712      9711      9713      9712      9711      9719      9713      9711      9719
      9713      9714      9715      9713      9714      9716      9714      9716      9717
      9714      9716      9718      9714      9716      9728      9715      9714      9716
      9716      9728      9729      9716      9728      9730      9716      9728      9731
      9717      9716      9718      9717      9716      9728      9718      9716      9728
      9719      9722      9723      9720      9719      9721      9720      9719      9722
      9721      9719      9722      9722      9723      9724      9722      9723      9725
      9723      9725      9726      9723      9725      9727      9723      9725      9775
      9724      9723      9725      9725      9775      9776      9725      9775      9777
      9725      9775      9778      9726      9725      9727      9726      9725      9775
      9727      9725      9775      9728      9731      9732      9728      9731      9733
      9728      9731      9734      9729      9728      9730      9729      9728      9731
      9730      9728      9731      9731      9734      9735      9731      9734      9736
      9731      9734      9737      9732      9731      9733      9732      9731      9734
      9733      9731      9734      9734      9737      9738      9734      9737      9739
      9734      9737      9740      9735      9734      9736      9735      9734      9737
      9736      9734      9737      9737      9740      9741      9737      9740      9742
      9737      9740      9743      9738      9737      9739      9738      9737      9740
      9739      9737      9740      9740      9743      9744      9740      9743      9745
      9740      9743      9746      9741      9740      9742      9741      9740      9743
      9742      9740      9743      9743      9746      9747      9743      9746      9748
      9744      9743      9745      9744      9743      9746      9745      9743      9746
      9746      9748      9749      9746      9748      9750      9747      9746      9748
      9748      9750      9751      9748      9750      9752      9748      9750      9753
      9749      9748      9750      9750      9753      9754      9750      9753      9755
      9750      9753      9756      9751      9750      9752      9751      9750      9753
      9752      9750      9753      9753      9756      9757      9753      9756      9758
      9753      9756      9759      9754      9753      9755      9754      9753      9756
      9755      9753      9756      9756      9759      9760      9756      9759      9761
      9756      9759      9762      9757      9756      9758      9757      9756      9759
      9758      9756      9759      9759      9762      9763      9759      9762      9764
      9759      9762      9765      9760      9759      9761      9760      9759      9762
      9761      9759      9762      9762      9765      9766      9762      9765      9767
      9762      9765      9768      9763      9762      9764      9763      9762      9765
      9764      9762      9765      9765      9768      9769      9765      9768      9770
      9765      9768      9771      9766      9765      9767      9766      9765      9768
      9767      9765      9768      9768      9771      9772      9768      9771      9773
      9768      9771      9774      9769      9768      9770      9769      9768      9771
      9770      9768      9771      9772      9771      9773      9772      9771      9774
      9773      9771      9774      9775      9778      9779      9775      9778      9780
      9775      9778      9781      9776      9775      9777      9776      9775      9778
      9777      9775      9778      9778      9781      9782      9778      9781      9783
      9778      9781      9784      9779      9778      9780      9779      9778      9781
      9780      9778      9781      9781      9784      9785      9781      9784      9786
      9781      9784      9787      9782      9781      9783      9782      9781      9784
      9783      9781      9784      9784      9787      9788      9784      9787      9789
      9784      9787      9790      9785      9784      9786      9785      9784      9787
      9786      9784      9787      9787      9790      9791      9787      9790      9792
      9787      9790      9793      9788      9787      9789      9788      9787      9790
      9789      9787      9790      9790      9793      9794      9790      9793      9795
      9791      9790      9792      9791      9790      9793      9792      9790      9793
      9793      9795      9796      9793      9795      9797      9794      9793      9795
      9795      9797      9798      9795      9797      9799      9795      9797      9800
      9796      9795      9797      9797      9800      9801      9797      9800      9802
      9797      9800      9803      9798      9797      9799      9798      9797      9800
      9799      9797      9800      9800      9803      9804      9800      9803      9805
      9800      9803      9806      9801      9800      9802      9801      9800      9803
      9802      9800      9803      9803      9806      9807      9803      9806      9808
      9803      9806      9809      9804      9803      9805      9804      9803      9806
      9805      9803      9806      9806      9809      9810      9806      9809      9811
      9806      9809      9812      9807      9806      9808      9807      9806      9809
      9808      9806      9809      9809      9812      9813      9809      9812      9814
      9809      9812      9815      9810      9809      9811      9810      9809      9812
      9811      9809      9812      9812      9815      9816      9812      9815      9817
      9812      9815      9818      9813      9812      9814      9813      9812      9815
      9814      9812      9815      9815      9818      9819      9815      9818      9820
      9815      9818      9821      9816      9815      9817      9816      9815      9818
      9817      9815      9818      9819      9818      9820      9819      9818      9821
      9820      9818      9821      9822      9823      9824      9822      9823      9825
      9822      9823      9826      9822      9827      9828      9822      9827      9829
      9822      9827      9830      9822      9831      9832      9822      9831      9833
      9822      9831      9834      9822      9835      9836      9822      9835      9837
      9822      9835      9838      9823      9822      9827      9823      9822      9831
      9823      9822      9835      9824      9823      9825      9824      9823      9826
      9825      9823      9826      9827      9822      9831      9827      9822      9835
      9828      9827      9829      9828      9827      9830      9829      9827      9830
      9831      9822      9835      9832      9831      9833      9832      9831      9834
      9833      9831      9834      9835      9838      9839      9835      9838      9840
      9835      9838      9845      9836      9835      9837      9836      9835      9838
      9837      9835      9838      9838      9845      9841      9839      9838      9840
      9839      9838      9845      9840      9838      9845      9841      9844      9846
      9842      9841      9843      9842      9841      9844      9842      9841      9845
      9843      9841      9844      9843      9841      9845      9844      9841      9845
      9844      9846      9847      9844      9846      9848      9844      9846      9851
      9846      9851      9849      9846      9851      9852      9846      9851      9853
      9847      9846      9848      9847      9846      9851      9848      9846      9851
      9849      9851      9852      9849      9851      9853      9849      9901      9902
      9849      9901      9903      9850      9849      9851      9850      9849      9901
      9851      9849      9901      9851      9853      9854      9851      9853      9855
      9851      9853      9857      9852      9851      9853      9853      9855      9856
      9853      9857      9858      9853      9857      9859      9854      9853      9855
      9854      9853      9857      9855      9853      9857      9857      9859      9860
      9857      9859      9861      9858      9857      9859      9859      9861      9862
      9859      9861      9863      9859      9861      9864      9860      9859      9861
      9861      9864      9865      9861      9864      9866      9861      9864      9867
      9862      9861      9863      9862      9861      9864      9863      9861      9864
      9864      9867      9868      9864      9867      9869      9864      9867      9870
      9865      9864      9866      9865      9864      9867      9866      9864      9867
      9867      9870      9871      9867      9870      9872      9867      9870      9873
      9868      9867      9869      9868      9867      9870      9869      9867      9870
      9870      9873      9874      9870      9873      9875      9870      9873      9876
      9871      9870      9872      9871      9870      9873      9872      9870      9873
      9873      9876      9877      9873      9876      9878      9873      9876      9879
      9874      9873      9875      9874      9873      9876      9875      9873      9876
      9876      9879      9880      9876      9879      9881      9876      9879      9882
      9877      9876      9878      9877      9876      9879      9878      9876      9879
      9879      9882      9883      9879      9882      9884      9879      9882      9885
      9880      9879      9881      9880      9879      9882      9881      9879      9882
      9882      9885      9886      9882      9885      9887      9882      9885      9888
      9883      9882      9884      9883      9882      9885      9884      9882      9885
      9885      9888      9889      9885      9888      9890      9885      9888      9891
      9886      9885      9887      9886      9885      9888      9887      9885      9888
      9888      9891      9892      9888      9891      9893      9888      9891      9894
      9889      9888      9890      9889      9888      9891      9890      9888      9891
      9891      9894      9895      9891      9894      9896      9891      9894      9897
      9892      9891      9893      9892      9891      9894      9893      9891      9894
      9894      9897      9898      9894      9897      9899      9894      9897      9900
      9895      9894      9896      9895      9894      9897      9896      9894      9897
      9898      9897      9899      9898      9897      9900      9899      9897      9900
      9901      9903      9904      9901      9903      9905      9901      9903      9906
      9902      9901      9903      9903      9906      9907      9903      9906      9908
      9903      9906      9909      9904      9903      9905      9904      9903      9906
      9905      9903      9906      9906      9909      9910      9906      9909      9911
      9906      9909      9912      9907      9906      9908      9907      9906      9909
      9908      9906      9909      9909      9912      9913      9909      9912      9914
      9909      9912      9915      9910      9909      9911      9910      9909      9912
      9911      9909      9912      9912      9915      9916      9912      9915      9917
      9912      9915      9918      9913      9912      9914      9913      9912      9915
      9914      9912      9915      9915      9918      9919      9915      9918      9920
      9915      9918      9921      9916      9915      9917      9916      9915      9918
      9917      9915      9918      9918      9921      9922      9918      9921      9923
      9918      9921      9924      9919      9918      9920      9919      9918      9921
      9920      9918      9921      9921      9924      9925      9921      9924      9926
      9921      9924      9927      9922      9921      9923      9922      9921      9924
      9923      9921      9924      9924      9927      9928      9924      9927      9929
      9924      9927      9930      9925      9924      9926      9925      9924      9927
      9926      9924      9927      9927      9930      9931      9927      9930      9932
      9927      9930      9933      9928      9927      9929      9928      9927      9930
      9929      9927      9930      9930      9933      9934      9930      9933      9935
      9930      9933      9936      9931      9930      9932      9931      9930      9933
      9932      9930      9933      9933      9936      9937      9933      9936      9938
      9933      9936      9939      9934      9933      9935      9934      9933      9936
      9935      9933      9936      9936      9939      9940      9936      9939      9941
      9936      9939      9942      9937      9936      9938      9937      9936      9939
      9938      9936      9939      9939      9942      9943      9939      9942      9944
      9939      9942      9945      9940      9939      9941      9940      9939      9942
      9941      9939      9942      9942      9945      9946      9942      9945      9947
      9942      9945      9948      9943      9942      9944      9943      9942      9945
      9944      9942      9945      9945      9948      9949      9945      9948      9950
      9945      9948      9951      9946      9945      9947      9946      9945      9948
      9947      9945      9948      9948      9951      9952      9948      9951      9953
      9948      9951      9954      9949      9948      9950      9949      9948      9951
      9950      9948      9951      9951      9954      9955      9951      9954      9956
      9951      9954      9957      9952      9951      9953      9952      9951      9954
      9953      9951      9954      9954      9957      9958      9954      9957      9959
      9954      9957      9960      9955      9954      9956      9955      9954      9957
      9956      9954      9957      9957      9960      9961      9957      9960      9962
      9957      9960      9963      9958      9957      9959      9958      9957      9960
      9959      9957      9960      9960      9963      9964      9960      9963      9965
      9960      9963      9966      9961      9960      9962      9961      9960      9963
      9962      9960      9963      9963      9966      9967      9963      9966      9968
      9963      9966      9969      9964      9963      9965      9964      9963      9966
      9965      9963      9966      9967      9966      9968      9967      9966      9969
      9968      9966      9969      9970      9972      9973      9970      9974      9975
      9970      9974      9976      9970      9974      9977      9970     10016     10013
      9970     10016     10017      9970     10016     10018      9971      9970      9972
      9971      9970      9974      9971      9970     10016      9972      9970      9974
      9972      9970     10016      9974      9970     10016      9974      9977      9978
      9974      9977     10008      9975      9974      9976      9975      9974      9977
      9976      9974      9977      9977      9978      9979      9977      9978      9980
      9977     10008     10006      9977     10008     10009      9977     10008     10013
      9978      9977     10008      9978      9980      9981      9978      9980      9982
      9978      9980      9983      9979      9978      9980      9980      9983      9984
      9980      9983      9985      9980      9983     10006      9981      9980      9982
      9981      9980      9983      9982      9980      9983      9983      9985      9986
      9983      9985      9987      9983      9985      9995      9983     10006     10003
      9983     10006     10007      9983     10006     10008      9984      9983      9985
      9984      9983     10006      9985      9983     10006      9985      9987      9988
      9985      9987      9989      9985      9987      9990      9985      9995      9993
      9985      9995      9996      9985      9995     10000      9986      9985      9987
      9986      9985      9995      9987      9985      9995      9987      9990      9991
      9987      9990      9992      9987      9990      9993      9988      9987      9989
      9988      9987      9990      9989      9987      9990      9990      9993      9994
      9990      9993      9995      9990      9993     10019      9991      9990      9992
      9991      9990      9993      9992      9990      9993      9993      9995      9996
      9993      9995     10000      9993     10019     10020      9993     10019     10021
      9993     10019     10025      9994      9993      9995      9994      9993     10019
      9995      9993     10019      9995      9996      9997      9995      9996      9998
      9995      9996      9999      9995     10000     10001      9995     10000     10002
      9995     10000     10003      9996      9995     10000      9997      9996      9998
      9997      9996      9999      9998      9996      9999     10000     10003     10004
     10000     10003     10005     10000     10003     10006     10001     10000     10002
     10001     10000     10003     10002     10000     10003     10003     10006     10007
     10003     10006     10008     10004     10003     10005     10004     10003     10006
     10005     10003     10006     10006     10008     10009     10006     10008     10013
     10007     10006     10008     10008     10009     10010     10008     10009     10011
     10008     10009     10012     10008     10013     10014     10008     10013     10015
     10008     10013     10016     10009     10008     10013     10010     10009     10011
     10010     10009     10012     10011     10009     10012     10013     10016     10017
     10013     10016     10018     10014     10013     10015     10014     10013     10016
     10015     10013     10016     10017     10016     10018     10019     10021     10022
     10019     10021     10023     10019     10021     10024     10019     10025     10026
     10019     10025     10027     10019     10025     10028     10020     10019     10021
     10020     10019     10025     10021     10019     10025     10022     10021     10023
     10022     10021     10024     10023     10021     10024     10025     10028     10029
     10025     10028     10030     10025     10028     10031     10026     10025     10027
     10026     10025     10028     10027     10025     10028     10028     10031     10032
     10028     10031     10033     10028     10031     10034     10029     10028     10030
     10029     10028     10031     10030     10028     10031     10031     10034     10035
     10031     10034     10036     10031     10034     10040     10032     10031     10033
     10032     10031     10034     10033     10031     10034     10034     10036     10037
     10034     10036     10038     10034     10036     10039     10034     10040     10041
     10034     10040     10042     10034     10040     10043     10035     10034     10036
     10035     10034     10040     10036     10034     10040     10037     10036     10038
     10037     10036     10039     10038     10036     10039     10041     10040     10042
     10041     10040     10043     10042     10040     10043     10044     10048     10049
     10044     10048     10050     10044     10048     10051     10045     10044     10046
     10045     10044     10047     10045     10044     10048     10046     10044     10047
     10046     10044     10048     10047     10044     10048     10048     10051     10052
     10048     10051     10053     10048     10051     10058     10049     10048     10050
     10049     10048     10051     10050     10048     10051     10051     10058     10054
     10052     10051     10053     10052     10051     10058     10053     10051     10058
     10054     10057     10059     10055     10054     10056     10055     10054     10057
     10055     10054     10058     10056     10054     10057     10056     10054     10058
     10057     10054     10058     10057     10059     10060     10057     10059     10061
     10057     10059     10062     10059     10062     10063     10059     10062     10064
     10059     10062     10070     10060     10059     10061     10060     10059     10062
     10061     10059     10062     10062     10064     10065     10062     10070     10071
     10062     10070     10072     10062     10070     10073     10063     10062     10064
     10063     10062     10070     10064     10062     10070     10064     10065     10066
     10064     10065     10067     10065     10067     10068     10065     10067     10069
     10065     10067     10079     10066     10065     10067     10067     10079     10080
     10067     10079     10081     10067     10079     10082     10068     10067     10069
     10068     10067     10079     10069     10067     10079     10070     10073     10074
     10071     10070     10072     10071     10070     10073     10072     10070     10073
     10073     10074     10075     10073     10074     10076     10074     10076     10077
     10074     10076     10078     10074     10076     10126     10075     10074     10076
     10076     10126     10127     10076     10126     10128     10076     10126     10129
     10077     10076     10078     10077     10076     10126     10078     10076     10126
     10079     10082     10083     10079     10082     10084     10079     10082     10085
     10080     10079     10081     10080     10079     10082     10081     10079     10082
     10082     10085     10086     10082     10085     10087     10082     10085     10088
     10083     10082     10084     10083     10082     10085     10084     10082     10085
     10085     10088     10089     10085     10088     10090     10085     10088     10091
     10086     10085     10087     10086     10085     10088     10087     10085     10088
     10088     10091     10092     10088     10091     10093     10088     10091     10094
     10089     10088     10090     10089     10088     10091     10090     10088     10091
     10091     10094     10095     10091     10094     10096     10091     10094     10097
     10092     10091     10093     10092     10091     10094     10093     10091     10094
     10094     10097     10098     10094     10097     10099     10095     10094     10096
     10095     10094     10097     10096     10094     10097     10097     10099     10100
     10097     10099     10101     10098     10097     10099     10099     10101     10102
     10099     10101     10103     10099     10101     10104     10100     10099     10101
     10101     10104     10105     10101     10104     10106     10101     10104     10107
     10102     10101     10103     10102     10101     10104     10103     10101     10104
     10104     10107     10108     10104     10107     10109     10104     10107     10110
     10105     10104     10106     10105     10104     10107     10106     10104     10107
     10107     10110     10111     10107     10110     10112     10107     10110     10113
     10108     10107     10109     10108     10107     10110     10109     10107     10110
     10110     10113     10114     10110     10113     10115     10110     10113     10116
     10111     10110     10112     10111     10110     10113     10112     10110     10113
     10113     10116     10117     10113     10116     10118     10113     10116     10119
     10114     10113     10115     10114     10113     10116     10115     10113     10116
     10116     10119     10120     10116     10119     10121     10116     10119     10122
     10117     10116     10118     10117     10116     10119     10118     10116     10119
     10119     10122     10123     10119     10122     10124     10119     10122     10125
     10120     10119     10121     10120     10119     10122     10121     10119     10122
     10123     10122     10124     10123     10122     10125     10124     10122     10125
     10126     10129     10130     10126     10129     10131     10126     10129     10132
     10127     10126     10128     10127     10126     10129     10128     10126     10129
     10129     10132     10133     10129     10132     10134     10129     10132     10135
     10130     10129     10131     10130     10129     10132     10131     10129     10132
     10132     10135     10136     10132     10135     10137     10132     10135     10138
     10133     10132     10134     10133     10132     10135     10134     10132     10135
     10135     10138     10139     10135     10138     10140     10135     10138     10141
     10136     10135     10137     10136     10135     10138     10137     10135     10138
     10138     10141     10142     10138     10141     10143     10138     10141     10144
     10139     10138     10140     10139     10138     10141     10140     10138     10141
     10141     10144     10145     10141     10144     10146     10142     10141     10143
     10142     10141     10144     10143     10141     10144     10144     10146     10147
     10144     10146     10148     10145     10144     10146     10146     10148     10149
     10146     10148     10150     10146     10148     10151     10147     10146     10148
     10148     10151     10152     10148     10151     10153     10148     10151     10154
     10149     10148     10150     10149     10148     10151     10150     10148     10151
     10151     10154     10155     10151     10154     10156     10151     10154     10157
     10152     10151     10153     10152     10151     10154     10153     10151     10154
     10154     10157     10158     10154     10157     10159     10154     10157     10160
     10155     10154     10156     10155     10154     10157     10156     10154     10157
     10157     10160     10161     10157     10160     10162     10157     10160     10163
     10158     10157     10159     10158     10157     10160     10159     10157     10160
     10160     10163     10164     10160     10163     10165     10160     10163     10166
     10161     10160     10162     10161     10160     10163     10162     10160     10163
     10163     10166     10167     10163     10166     10168     10163     10166     10169
     10164     10163     10165     10164     10163     10166     10165     10163     10166
     10166     10169     10170     10166     10169     10171     10166     10169     10172
     10167     10166     10168     10167     10166     10169     10168     10166     10169
     10170     10169     10171     10170     10169     10172     10171     10169     10172
     10173     10174     10175     10173     10174     10176     10173     10174     10189
     10173     10177     10178     10173     10177     10179     10173     10177     10180
     10173     10181     10182     10173     10181     10183     10173     10181     10184
     10173     10185     10186     10173     10185     10187     10173     10185     10188
     10174     10173     10177     10174     10173     10181     10174     10173     10185
     10174     10189     10190     10174     10189     10191     10174     10189     10195
     10175     10174     10176     10175     10174     10189     10176     10174     10189
     10177     10173     10181     10177     10173     10185     10178     10177     10179
     10178     10177     10180     10179     10177     10180     10181     10173     10185
     10182     10181     10183     10182     10181     10184     10183     10181     10184
     10186     10185     10187     10186     10185     10188     10187     10185     10188
     10189     10195     10192     10190     10189     10191     10190     10189     10195
     10191     10189     10195     10192     10196     10197     10193     10192     10194
     10193     10192     10195     10193     10192     10196     10194     10192     10195
     10194     10192     10196     10195     10192     10196     10196     10197     10198
     10196     10197     10199     10196     10197     10200     10197     10200     10201
     10197     10200     10202     10197     10200     10208     10198     10197     10199
     10198     10197     10200     10199     10197     10200     10200     10202     10203
     10200     10208     10209     10200     10208     10210     10200     10208     10211
     10201     10200     10202     10201     10200     10208     10202     10200     10208
     10202     10203     10204     10202     10203     10205     10203     10205     10206
     10203     10205     10207     10203     10205     10217     10204     10203     10205
     10205     10217     10218     10205     10217     10219     10205     10217     10220
     10206     10205     10207     10206     10205     10217     10207     10205     10217
     10208     10211     10212     10209     10208     10210     10209     10208     10211
     10210     10208     10211     10211     10212     10213     10211     10212     10214
     10212     10214     10215     10212     10214     10216     10212     10214     10264
     10213     10212     10214     10214     10264     10265     10214     10264     10266
     10214     10264     10267     10215     10214     10216     10215     10214     10264
     10216     10214     10264     10217     10220     10221     10217     10220     10222
     10217     10220     10223     10218     10217     10219     10218     10217     10220
     10219     10217     10220     10220     10223     10224     10220     10223     10225
     10220     10223     10226     10221     10220     10222     10221     10220     10223
     10222     10220     10223     10223     10226     10227     10223     10226     10228
     10223     10226     10229     10224     10223     10225     10224     10223     10226
     10225     10223     10226     10226     10229     10230     10226     10229     10231
     10226     10229     10232     10227     10226     10228     10227     10226     10229
     10228     10226     10229     10229     10232     10233     10229     10232     10234
     10229     10232     10235     10230     10229     10231     10230     10229     10232
     10231     10229     10232     10232     10235     10236     10232     10235     10237
     10233     10232     10234     10233     10232     10235     10234     10232     10235
     10235     10237     10238     10235     10237     10239     10236     10235     10237
     10237     10239     10240     10237     10239     10241     10237     10239     10242
     10238     10237     10239     10239     10242     10243     10239     10242     10244
     10239     10242     10245     10240     10239     10241     10240     10239     10242
     10241     10239     10242     10242     10245     10246     10242     10245     10247
     10242     10245     10248     10243     10242     10244     10243     10242     10245
     10244     10242     10245     10245     10248     10249     10245     10248     10250
     10245     10248     10251     10246     10245     10247     10246     10245     10248
     10247     10245     10248     10248     10251     10252     10248     10251     10253
     10248     10251     10254     10249     10248     10250     10249     10248     10251
     10250     10248     10251     10251     10254     10255     10251     10254     10256
     10251     10254     10257     10252     10251     10253     10252     10251     10254
     10253     10251     10254     10254     10257     10258     10254     10257     10259
     10254     10257     10260     10255     10254     10256     10255     10254     10257
     10256     10254     10257     10257     10260     10261     10257     10260     10262
     10257     10260     10263     10258     10257     10259     10258     10257     10260
     10259     10257     10260     10261     10260     10262     10261     10260     10263
     10262     10260     10263     10264     10267     10268     10264     10267     10269
     10264     10267     10270     10265     10264     10266     10265     10264     10267
     10266     10264     10267     10267     10270     10271     10267     10270     10272
     10267     10270     10273     10268     10267     10269     10268     10267     10270
     10269     10267     10270     10270     10273     10274     10270     10273     10275
     10270     10273     10276     10271     10270     10272     10271     10270     10273
     10272     10270     10273     10273     10276     10277     10273     10276     10278
     10273     10276     10279     10274     10273     10275     10274     10273     10276
     10275     10273     10276     10276     10279     10280     10276     10279     10281
     10276     10279     10282     10277     10276     10278     10277     10276     10279
     10278     10276     10279     10279     10282     10283     10279     10282     10284
     10280     10279     10281     10280     10279     10282     10281     10279     10282
     10282     10284     10285     10282     10284     10286     10283     10282     10284
     10284     10286     10287     10284     10286     10288     10284     10286     10289
     10285     10284     10286     10286     10289     10290     10286     10289     10291
     10286     10289     10292     10287     10286     10288     10287     10286     10289
     10288     10286     10289     10289     10292     10293     10289     10292     10294
     10289     10292     10295     10290     10289     10291     10290     10289     10292
     10291     10289     10292     10292     10295     10296     10292     10295     10297
     10292     10295     10298     10293     10292     10294     10293     10292     10295
     10294     10292     10295     10295     10298     10299     10295     10298     10300
     10295     10298     10301     10296     10295     10297     10296     10295     10298
     10297     10295     10298     10298     10301     10302     10298     10301     10303
     10298     10301     10304     10299     10298     10300     10299     10298     10301
     10300     10298     10301     10301     10304     10305     10301     10304     10306
     10301     10304     10307     10302     10301     10303     10302     10301     10304
     10303     10301     10304     10304     10307     10308     10304     10307     10309
     10304     10307     10310     10305     10304     10306     10305     10304     10307
     10306     10304     10307     10308     10307     10309     10308     10307     10310
     10309     10307     10310     10311     10312     10313     10311     10312     10314
     10311     10312     10315     10311     10316     10317     10311     10316     10318
     10311     10316     10319     10311     10320     10321     10311     10320     10322
     10311     10320     10323     10311     10324     10325     10311     10324     10326
     10311     10324     10327     10312     10311     10316     10312     10311     10320
     10312     10311     10324     10313     10312     10314     10313     10312     10315
     10314     10312     10315     10316     10311     10320     10316     10311     10324
     10317     10316     10318     10317     10316     10319     10318     10316     10319
     10320     10311     10324     10321     10320     10322     10321     10320     10323
     10322     10320     10323     10324     10327     10328     10324     10327     10329
     10324     10327     10334     10325     10324     10326     10325     10324     10327
     10326     10324     10327     10327     10334     10330     10328     10327     10329
     10328     10327     10334     10329     10327     10334     10330     10333     10335
     10331     10330     10332     10331     10330     10333     10331     10330     10334
     10332     10330     10333     10332     10330     10334     10333     10330     10334
     10333     10335     10336     10333     10335     10337     10333     10335     10340
     10335     10340     10338     10335     10340     10341     10335     10340     10342
     10336     10335     10337     10336     10335     10340     10337     10335     10340
     10338     10340     10341     10338     10340     10342     10338     10390     10391
     10338     10390     10392     10339     10338     10340     10339     10338     10390
     10340     10338     10390     10340     10342     10343     10340     10342     10344
     10340     10342     10346     10341     10340     10342     10342     10344     10345
     10342     10346     10347     10342     10346     10348     10343     10342     10344
     10343     10342     10346     10344     10342     10346     10346     10348     10349
     10346     10348     10350     10347     10346     10348     10348     10350     10351
     10348     10350     10352     10348     10350     10353     10349     10348     10350
     10350     10353     10354     10350     10353     10355     10350     10353     10356
     10351     10350     10352     10351     10350     10353     10352     10350     10353
     10353     10356     10357     10353     10356     10358     10353     10356     10359
     10354     10353     10355     10354     10353     10356     10355     10353     10356
     10356     10359     10360     10356     10359     10361     10356     10359     10362
     10357     10356     10358     10357     10356     10359     10358     10356     10359
     10359     10362     10363     10359     10362     10364     10359     10362     10365
     10360     10359     10361     10360     10359     10362     10361     10359     10362
     10362     10365     10366     10362     10365     10367     10362     10365     10368
     10363     10362     10364     10363     10362     10365     10364     10362     10365
     10365     10368     10369     10365     10368     10370     10365     10368     10371
     10366     10365     10367     10366     10365     10368     10367     10365     10368
     10368     10371     10372     10368     10371     10373     10368     10371     10374
     10369     10368     10370     10369     10368     10371     10370     10368     10371
     10371     10374     10375     10371     10374     10376     10371     10374     10377
     10372     10371     10373     10372     10371     10374     10373     10371     10374
     10374     10377     10378     10374     10377     10379     10374     10377     10380
     10375     10374     10376     10375     10374     10377     10376     10374     10377
     10377     10380     10381     10377     10380     10382     10377     10380     10383
     10378     10377     10379     10378     10377     10380     10379     10377     10380
     10380     10383     10384     10380     10383     10385     10380     10383     10386
     10381     10380     10382     10381     10380     10383     10382     10380     10383
     10383     10386     10387     10383     10386     10388     10383     10386     10389
     10384     10383     10385     10384     10383     10386     10385     10383     10386
     10387     10386     10388     10387     10386     10389     10388     10386     10389
     10390     10392     10393     10390     10392     10394     10390     10392     10395
     10391     10390     10392     10392     10395     10396     10392     10395     10397
     10392     10395     10398     10393     10392     10394     10393     10392     10395
     10394     10392     10395     10395     10398     10399     10395     10398     10400
     10395     10398     10401     10396     10395     10397     10396     10395     10398
     10397     10395     10398     10398     10401     10402     10398     10401     10403
     10398     10401     10404     10399     10398     10400     10399     10398     10401
     10400     10398     10401     10401     10404     10405     10401     10404     10406
     10401     10404     10407     10402     10401     10403     10402     10401     10404
     10403     10401     10404     10404     10407     10408     10404     10407     10409
     10404     10407     10410     10405     10404     10406     10405     10404     10407
     10406     10404     10407     10407     10410     10411     10407     10410     10412
     10407     10410     10413     10408     10407     10409     10408     10407     10410
     10409     10407     10410     10410     10413     10414     10410     10413     10415
     10410     10413     10416     10411     10410     10412     10411     10410     10413
     10412     10410     10413     10413     10416     10417     10413     10416     10418
     10413     10416     10419     10414     10413     10415     10414     10413     10416
     10415     10413     10416     10416     10419     10420     10416     10419     10421
     10416     10419     10422     10417     10416     10418     10417     10416     10419
     10418     10416     10419     10419     10422     10423     10419     10422     10424
     10419     10422     10425     10420     10419     10421     10420     10419     10422
     10421     10419     10422     10422     10425     10426     10422     10425     10427
     10422     10425     10428     10423     10422     10424     10423     10422     10425
     10424     10422     10425     10425     10428     10429     10425     10428     10430
     10425     10428     10431     10426     10425     10427     10426     10425     10428
     10427     10425     10428     10428     10431     10432     10428     10431     10433
     10428     10431     10434     10429     10428     10430     10429     10428     10431
     10430     10428     10431     10431     10434     10435     10431     10434     10436
     10431     10434     10437     10432     10431     10433     10432     10431     10434
     10433     10431     10434     10434     10437     10438     10434     10437     10439
     10434     10437     10440     10435     10434     10436     10435     10434     10437
     10436     10434     10437     10437     10440     10441     10437     10440     10442
     10437     10440     10443     10438     10437     10439     10438     10437     10440
     10439     10437     10440     10440     10443     10444     10440     10443     10445
     10440     10443     10446     10441     10440     10442     10441     10440     10443
     10442     10440     10443     10443     10446     10447     10443     10446     10448
     10443     10446     10449     10444     10443     10445     10444     10443     10446
     10445     10443     10446     10446     10449     10450     10446     10449     10451
     10446     10449     10452     10447     10446     10448     10447     10446     10449
     10448     10446     10449     10449     10452     10453     10449     10452     10454
     10449     10452     10455     10450     10449     10451     10450     10449     10452
     10451     10449     10452     10452     10455     10456     10452     10455     10457
     10452     10455     10458     10453     10452     10454     10453     10452     10455
     10454     10452     10455     10456     10455     10457     10456     10455     10458
     10457     10455     10458     10459     10460     10461     10459     10460     10462
     10459     10460     10475     10459     10463     10464     10459     10463     10465
     10459     10463     10466     10459     10467     10468     10459     10467     10469
     10459     10467     10470     10459     10471     10472     10459     10471     10473
     10459     10471     10474     10460     10459     10463     10460     10459     10467
     10460     10459     10471     10460     10475     10476     10460     10475     10477
     10460     10475     10481     10461     10460     10462     10461     10460     10475
     10462     10460     10475     10463     10459     10467     10463     10459     10471
     10464     10463     10465     10464     10463     10466     10465     10463     10466
     10467     10459     10471     10468     10467     10469     10468     10467     10470
     10469     10467     10470     10472     10471     10473     10472     10471     10474
     10473     10471     10474     10475     10481     10478     10476     10475     10477
     10476     10475     10481     10477     10475     10481     10478     10482     10483
     10479     10478     10480     10479     10478     10481     10479     10478     10482
     10480     10478     10481     10480     10478     10482     10481     10478     10482
     10482     10483     10484     10482     10483     10485     10482     10483     10486
     10483     10486     10487     10483     10486     10488     10483     10486     10494
     10484     10483     10485     10484     10483     10486     10485     10483     10486
     10486     10488     10489     10486     10494     10495     10486     10494     10496
     10486     10494     10497     10487     10486     10488     10487     10486     10494
     10488     10486     10494     10488     10489     10490     10488     10489     10491
     10489     10491     10492     10489     10491     10493     10489     10491     10503
     10490     10489     10491     10491     10503     10504     10491     10503     10505
     10491     10503     10506     10492     10491     10493     10492     10491     10503
     10493     10491     10503     10494     10497     10498     10495     10494     10496
     10495     10494     10497     10496     10494     10497     10497     10498     10499
     10497     10498     10500     10498     10500     10501     10498     10500     10502
     10498     10500     10550     10499     10498     10500     10500     10550     10551
     10500     10550     10552     10500     10550     10553     10501     10500     10502
     10501     10500     10550     10502     10500     10550     10503     10506     10507
     10503     10506     10508     10503     10506     10509     10504     10503     10505
     10504     10503     10506     10505     10503     10506     10506     10509     10510
     10506     10509     10511     10506     10509     10512     10507     10506     10508
     10507     10506     10509     10508     10506     10509     10509     10512     10513
     10509     10512     10514     10509     10512     10515     10510     10509     10511
     10510     10509     10512     10511     10509     10512     10512     10515     10516
     10512     10515     10517     10512     10515     10518     10513     10512     10514
     10513     10512     10515     10514     10512     10515     10515     10518     10519
     10515     10518     10520     10515     10518     10521     10516     10515     10517
     10516     10515     10518     10517     10515     10518     10518     10521     10522
     10518     10521     10523     10519     10518     10520     10519     10518     10521
     10520     10518     10521     10521     10523     10524     10521     10523     10525
     10522     10521     10523     10523     10525     10526     10523     10525     10527
     10523     10525     10528     10524     10523     10525     10525     10528     10529
     10525     10528     10530     10525     10528     10531     10526     10525     10527
     10526     10525     10528     10527     10525     10528     10528     10531     10532
     10528     10531     10533     10528     10531     10534     10529     10528     10530
     10529     10528     10531     10530     10528     10531     10531     10534     10535
     10531     10534     10536     10531     10534     10537     10532     10531     10533
     10532     10531     10534     10533     10531     10534     10534     10537     10538
     10534     10537     10539     10534     10537     10540     10535     10534     10536
     10535     10534     10537     10536     10534     10537     10537     10540     10541
     10537     10540     10542     10537     10540     10543     10538     10537     10539
     10538     10537     10540     10539     10537     10540     10540     10543     10544
     10540     10543     10545     10540     10543     10546     10541     10540     10542
     10541     10540     10543     10542     10540     10543     10543     10546     10547
     10543     10546     10548     10543     10546     10549     10544     10543     10545
     10544     10543     10546     10545     10543     10546     10547     10546     10548
     10547     10546     10549     10548     10546     10549     10550     10553     10554
     10550     10553     10555     10550     10553     10556     10551     10550     10552
     10551     10550     10553     10552     10550     10553     10553     10556     10557
     10553     10556     10558     10553     10556     10559     10554     10553     10555
     10554     10553     10556     10555     10553     10556     10556     10559     10560
     10556     10559     10561     10556     10559     10562     10557     10556     10558
     10557     10556     10559     10558     10556     10559     10559     10562     10563
     10559     10562     10564     10559     10562     10565     10560     10559     10561
     10560     10559     10562     10561     10559     10562     10562     10565     10566
     10562     10565     10567     10562     10565     10568     10563     10562     10564
     10563     10562     10565     10564     10562     10565     10565     10568     10569
     10565     10568     10570     10566     10565     10567     10566     10565     10568
     10567     10565     10568     10568     10570     10571     10568     10570     10572
     10569     10568     10570     10570     10572     10573     10570     10572     10574
     10570     10572     10575     10571     10570     10572     10572     10575     10576
     10572     10575     10577     10572     10575     10578     10573     10572     10574
     10573     10572     10575     10574     10572     10575     10575     10578     10579
     10575     10578     10580     10575     10578     10581     10576     10575     10577
     10576     10575     10578     10577     10575     10578     10578     10581     10582
     10578     10581     10583     10578     10581     10584     10579     10578     10580
     10579     10578     10581     10580     10578     10581     10581     10584     10585
     10581     10584     10586     10581     10584     10587     10582     10581     10583
     10582     10581     10584     10583     10581     10584     10584     10587     10588
     10584     10587     10589     10584     10587     10590     10585     10584     10586
     10585     10584     10587     10586     10584     10587     10587     10590     10591
     10587     10590     10592     10587     10590     10593     10588     10587     10589
     10588     10587     10590     10589     10587     10590     10590     10593     10594
     10590     10593     10595     10590     10593     10596     10591     10590     10592
     10591     10590     10593     10592     10590     10593     10594     10593     10595
     10594     10593     10596     10595     10593     10596     10597     10598     10599
     10597     10598     10600     10597     10598     10613     10597     10601     10602
     10597     10601     10603     10597     10601     10604     10597     10605     10606
     10597     10605     10607     10597     10605     10608     10597     10609     10610
     10597     10609     10611     10597     10609     10612     10598     10597     10601
     10598     10597     10605     10598     10597     10609     10598     10613     10614
     10598     10613     10615     10598     10613     10619     10599     10598     10600
     10599     10598     10613     10600     10598     10613     10601     10597     10605
     10601     10597     10609     10602     10601     10603     10602     10601     10604
     10603     10601     10604     10605     10597     10609     10606     10605     10607
     10606     10605     10608     10607     10605     10608     10610     10609     10611
     10610     10609     10612     10611     10609     10612     10613     10619     10616
     10614     10613     10615     10614     10613     10619     10615     10613     10619
     10616     10620     10621     10617     10616     10618     10617     10616     10619
     10617     10616     10620     10618     10616     10619     10618     10616     10620
     10619     10616     10620     10620     10621     10622     10620     10621     10623
     10620     10621     10624     10621     10624     10625     10621     10624     10626
     10621     10624     10632     10622     10621     10623     10622     10621     10624
     10623     10621     10624     10624     10626     10627     10624     10632     10633
     10624     10632     10634     10624     10632     10635     10625     10624     10626
     10625     10624     10632     10626     10624     10632     10626     10627     10628
     10626     10627     10629     10627     10629     10630     10627     10629     10631
     10627     10629     10641     10628     10627     10629     10629     10641     10642
     10629     10641     10643     10629     10641     10644     10630     10629     10631
     10630     10629     10641     10631     10629     10641     10632     10635     10636
     10633     10632     10634     10633     10632     10635     10634     10632     10635
     10635     10636     10637     10635     10636     10638     10636     10638     10639
     10636     10638     10640     10636     10638     10688     10637     10636     10638
     10638     10688     10689     10638     10688     10690     10638     10688     10691
     10639     10638     10640     10639     10638     10688     10640     10638     10688
     10641     10644     10645     10641     10644     10646     10641     10644     10647
     10642     10641     10643     10642     10641     10644     10643     10641     10644
     10644     10647     10648     10644     10647     10649     10644     10647     10650
     10645     10644     10646     10645     10644     10647     10646     10644     10647
     10647     10650     10651     10647     10650     10652     10647     10650     10653
     10648     10647     10649     10648     10647     10650     10649     10647     10650
     10650     10653     10654     10650     10653     10655     10650     10653     10656
     10651     10650     10652     10651     10650     10653     10652     10650     10653
     10653     10656     10657     10653     10656     10658     10653     10656     10659
     10654     10653     10655     10654     10653     10656     10655     10653     10656
     10656     10659     10660     10656     10659     10661     10657     10656     10658
     10657     10656     10659     10658     10656     10659     10659     10661     10662
     10659     10661     10663     10660     10659     10661     10661     10663     10664
     10661     10663     10665     10661     10663     10666     10662     10661     10663
     10663     10666     10667     10663     10666     10668     10663     10666     10669
     10664     10663     10665     10664     10663     10666     10665     10663     10666
     10666     10669     10670     10666     10669     10671     10666     10669     10672
     10667     10666     10668     10667     10666     10669     10668     10666     10669
     10669     10672     10673     10669     10672     10674     10669     10672     10675
     10670     10669     10671     10670     10669     10672     10671     10669     10672
     10672     10675     10676     10672     10675     10677     10672     10675     10678
     10673     10672     10674     10673     10672     10675     10674     10672     10675
     10675     10678     10679     10675     10678     10680     10675     10678     10681
     10676     10675     10677     10676     10675     10678     10677     10675     10678
     10678     10681     10682     10678     10681     10683     10678     10681     10684
     10679     10678     10680     10679     10678     10681     10680     10678     10681
     10681     10684     10685     10681     10684     10686     10681     10684     10687
     10682     10681     10683     10682     10681     10684     10683     10681     10684
     10685     10684     10686     10685     10684     10687     10686     10684     10687
     10688     10691     10692     10688     10691     10693     10688     10691     10694
     10689     10688     10690     10689     10688     10691     10690     10688     10691
     10691     10694     10695     10691     10694     10696     10691     10694     10697
     10692     10691     10693     10692     10691     10694     10693     10691     10694
     10694     10697     10698     10694     10697     10699     10694     10697     10700
     10695     10694     10696     10695     10694     10697     10696     10694     10697
     10697     10700     10701     10697     10700     10702     10697     10700     10703
     10698     10697     10699     10698     10697     10700     10699     10697     10700
     10700     10703     10704     10700     10703     10705     10700     10703     10706
     10701     10700     10702     10701     10700     10703     10702     10700     10703
     10703     10706     10707     10703     10706     10708     10704     10703     10705
     10704     10703     10706     10705     10703     10706     10706     10708     10709
     10706     10708     10710     10707     10706     10708     10708     10710     10711
     10708     10710     10712     10708     10710     10713     10709     10708     10710
     10710     10713     10714     10710     10713     10715     10710     10713     10716
     10711     10710     10712     10711     10710     10713     10712     10710     10713
     10713     10716     10717     10713     10716     10718     10713     10716     10719
     10714     10713     10715     10714     10713     10716     10715     10713     10716
     10716     10719     10720     10716     10719     10721     10716     10719     10722
     10717     10716     10718     10717     10716     10719     10718     10716     10719
     10719     10722     10723     10719     10722     10724     10719     10722     10725
     10720     10719     10721     10720     10719     10722     10721     10719     10722
     10722     10725     10726     10722     10725     10727     10722     10725     10728
     10723     10722     10724     10723     10722     10725     10724     10722     10725
     10725     10728     10729     10725     10728     10730     10725     10728     10731
     10726     10725     10727     10726     10725     10728     10727     10725     10728
     10728     10731     10732     10728     10731     10733     10728     10731     10734
     10729     10728     10730     10729     10728     10731     10730     10728     10731
     10732     10731     10733     10732     10731     10734     10733     10731     10734
     10735     10739     10740     10735     10739     10741     10735     10739     10742
     10736     10735     10737     10736     10735     10738     10736     10735     10739
     10737     10735     10738     10737     10735     10739     10738     10735     10739
     10739     10742     10743     10739     10742     10744     10739     10742     10749
     10740     10739     10741     10740     10739     10742     10741     10739     10742
     10742     10749     10745     10743     10742     10744     10743     10742     10749
     10744     10742     10749     10745     10748     10750     10746     10745     10747
     10746     10745     10748     10746     10745     10749     10747     10745     10748
     10747     10745     10749     10748     10745     10749     10748     10750     10751
     10748     10750     10752     10748     10750     10753     10750     10753     10754
     10750     10753     10755     10750     10753     10761     10751     10750     10752
     10751     10750     10753     10752     10750     10753     10753     10755     10756
     10753     10761     10762     10753     10761     10763     10753     10761     10764
     10754     10753     10755     10754     10753     10761     10755     10753     10761
     10755     10756     10757     10755     10756     10758     10756     10758     10759
     10756     10758     10760     10756     10758     10770     10757     10756     10758
     10758     10770     10771     10758     10770     10772     10758     10770     10773
     10759     10758     10760     10759     10758     10770     10760     10758     10770
     10761     10764     10765     10762     10761     10763     10762     10761     10764
     10763     10761     10764     10764     10765     10766     10764     10765     10767
     10765     10767     10768     10765     10767     10769     10765     10767     10817
     10766     10765     10767     10767     10817     10818     10767     10817     10819
     10767     10817     10820     10768     10767     10769     10768     10767     10817
     10769     10767     10817     10770     10773     10774     10770     10773     10775
     10770     10773     10776     10771     10770     10772     10771     10770     10773
     10772     10770     10773     10773     10776     10777     10773     10776     10778
     10773     10776     10779     10774     10773     10775     10774     10773     10776
     10775     10773     10776     10776     10779     10780     10776     10779     10781
     10776     10779     10782     10777     10776     10778     10777     10776     10779
     10778     10776     10779     10779     10782     10783     10779     10782     10784
     10779     10782     10785     10780     10779     10781     10780     10779     10782
     10781     10779     10782     10782     10785     10786     10782     10785     10787
     10782     10785     10788     10783     10782     10784     10783     10782     10785
     10784     10782     10785     10785     10788     10789     10785     10788     10790
     10786     10785     10787     10786     10785     10788     10787     10785     10788
     10788     10790     10791     10788     10790     10792     10789     10788     10790
     10790     10792     10793     10790     10792     10794     10790     10792     10795
     10791     10790     10792     10792     10795     10796     10792     10795     10797
     10792     10795     10798     10793     10792     10794     10793     10792     10795
     10794     10792     10795     10795     10798     10799     10795     10798     10800
     10795     10798     10801     10796     10795     10797     10796     10795     10798
     10797     10795     10798     10798     10801     10802     10798     10801     10803
     10798     10801     10804     10799     10798     10800     10799     10798     10801
     10800     10798     10801     10801     10804     10805     10801     10804     10806
     10801     10804     10807     10802     10801     10803     10802     10801     10804
     10803     10801     10804     10804     10807     10808     10804     10807     10809
     10804     10807     10810     10805     10804     10806     10805     10804     10807
     10806     10804     10807     10807     10810     10811     10807     10810     10812
     10807     10810     10813     10808     10807     10809     10808     10807     10810
     10809     10807     10810     10810     10813     10814     10810     10813     10815
     10810     10813     10816     10811     10810     10812     10811     10810     10813
     10812     10810     10813     10814     10813     10815     10814     10813     10816
     10815     10813     10816     10817     10820     10821     10817     10820     10822
     10817     10820     10823     10818     10817     10819     10818     10817     10820
     10819     10817     10820     10820     10823     10824     10820     10823     10825
     10820     10823     10826     10821     10820     10822     10821     10820     10823
     10822     10820     10823     10823     10826     10827     10823     10826     10828
     10823     10826     10829     10824     10823     10825     10824     10823     10826
     10825     10823     10826     10826     10829     10830     10826     10829     10831
     10826     10829     10832     10827     10826     10828     10827     10826     10829
     10828     10826     10829     10829     10832     10833     10829     10832     10834
     10829     10832     10835     10830     10829     10831     10830     10829     10832
     10831     10829     10832     10832     10835     10836     10832     10835     10837
     10833     10832     10834     10833     10832     10835     10834     10832     10835
     10835     10837     10838     10835     10837     10839     10836     10835     10837
     10837     10839     10840     10837     10839     10841     10837     10839     10842
     10838     10837     10839     10839     10842     10843     10839     10842     10844
     10839     10842     10845     10840     10839     10841     10840     10839     10842
     10841     10839     10842     10842     10845     10846     10842     10845     10847
     10842     10845     10848     10843     10842     10844     10843     10842     10845
     10844     10842     10845     10845     10848     10849     10845     10848     10850
     10845     10848     10851     10846     10845     10847     10846     10845     10848
     10847     10845     10848     10848     10851     10852     10848     10851     10853
     10848     10851     10854     10849     10848     10850     10849     10848     10851
     10850     10848     10851     10851     10854     10855     10851     10854     10856
     10851     10854     10857     10852     10851     10853     10852     10851     10854
     10853     10851     10854     10854     10857     10858     10854     10857     10859
     10854     10857     10860     10855     10854     10856     10855     10854     10857
     10856     10854     10857     10857     10860     10861     10857     10860     10862
     10857     10860     10863     10858     10857     10859     10858     10857     10860
     10859     10857     10860     10861     10860     10862     10861     10860     10863
     10862     10860     10863     10864     10865     10866     10864     10865     10867
     10864     10865     10868     10864     10869     10870     10864     10869     10871
     10864     10869     10872     10864     10873     10874     10864     10873     10875
     10864     10873     10876     10864     10877     10878     10864     10877     10879
     10864     10877     10880     10865     10864     10869     10865     10864     10873
     10865     10864     10877     10866     10865     10867     10866     10865     10868
     10867     10865     10868     10869     10864     10873     10869     10864     10877
     10870     10869     10871     10870     10869     10872     10871     10869     10872
     10873     10864     10877     10874     10873     10875     10874     10873     10876
     10875     10873     10876     10877     10880     10881     10877     10880     10882
     10877     10880     10887     10878     10877     10879     10878     10877     10880
     10879     10877     10880     10880     10887     10883     10881     10880     10882
     10881     10880     10887     10882     10880     10887     10883     10886     10888
     10884     10883     10885     10884     10883     10886     10884     10883     10887
     10885     10883     10886     10885     10883     10887     10886     10883     10887
     10886     10888     10889     10886     10888     10890     10886     10888     10893
     10888     10893     10891     10888     10893     10894     10888     10893     10895
     10889     10888     10890     10889     10888     10893     10890     10888     10893
     10891     10893     10894     10891     10893     10895     10891     10943     10944
     10891     10943     10945     10892     10891     10893     10892     10891     10943
     10893     10891     10943     10893     10895     10896     10893     10895     10897
     10893     10895     10899     10894     10893     10895     10895     10897     10898
     10895     10899     10900     10895     10899     10901     10896     10895     10897
     10896     10895     10899     10897     10895     10899     10899     10901     10902
     10899     10901     10903     10900     10899     10901     10901     10903     10904
     10901     10903     10905     10901     10903     10906     10902     10901     10903
     10903     10906     10907     10903     10906     10908     10903     10906     10909
     10904     10903     10905     10904     10903     10906     10905     10903     10906
     10906     10909     10910     10906     10909     10911     10906     10909     10912
     10907     10906     10908     10907     10906     10909     10908     10906     10909
     10909     10912     10913     10909     10912     10914     10909     10912     10915
     10910     10909     10911     10910     10909     10912     10911     10909     10912
     10912     10915     10916     10912     10915     10917     10912     10915     10918
     10913     10912     10914     10913     10912     10915     10914     10912     10915
     10915     10918     10919     10915     10918     10920     10915     10918     10921
     10916     10915     10917     10916     10915     10918     10917     10915     10918
     10918     10921     10922     10918     10921     10923     10918     10921     10924
     10919     10918     10920     10919     10918     10921     10920     10918     10921
     10921     10924     10925     10921     10924     10926     10921     10924     10927
     10922     10921     10923     10922     10921     10924     10923     10921     10924
     10924     10927     10928     10924     10927     10929     10924     10927     10930
     10925     10924     10926     10925     10924     10927     10926     10924     10927
     10927     10930     10931     10927     10930     10932     10927     10930     10933
     10928     10927     10929     10928     10927     10930     10929     10927     10930
     10930     10933     10934     10930     10933     10935     10930     10933     10936
     10931     10930     10932     10931     10930     10933     10932     10930     10933
     10933     10936     10937     10933     10936     10938     10933     10936     10939
     10934     10933     10935     10934     10933     10936     10935     10933     10936
     10936     10939     10940     10936     10939     10941     10936     10939     10942
     10937     10936     10938     10937     10936     10939     10938     10936     10939
     10940     10939     10941     10940     10939     10942     10941     10939     10942
     10943     10945     10946     10943     10945     10947     10943     10945     10948
     10944     10943     10945     10945     10948     10949     10945     10948     10950
     10945     10948     10951     10946     10945     10947     10946     10945     10948
     10947     10945     10948     10948     10951     10952     10948     10951     10953
     10948     10951     10954     10949     10948     10950     10949     10948     10951
     10950     10948     10951     10951     10954     10955     10951     10954     10956
     10951     10954     10957     10952     10951     10953     10952     10951     10954
     10953     10951     10954     10954     10957     10958     10954     10957     10959
     10954     10957     10960     10955     10954     10956     10955     10954     10957
     10956     10954     10957     10957     10960     10961     10957     10960     10962
     10957     10960     10963     10958     10957     10959     10958     10957     10960
     10959     10957     10960     10960     10963     10964     10960     10963     10965
     10960     10963     10966     10961     10960     10962     10961     10960     10963
     10962     10960     10963     10963     10966     10967     10963     10966     10968
     10963     10966     10969     10964     10963     10965     10964     10963     10966
     10965     10963     10966     10966     10969     10970     10966     10969     10971
     10966     10969     10972     10967     10966     10968     10967     10966     10969
     10968     10966     10969     10969     10972     10973     10969     10972     10974
     10969     10972     10975     10970     10969     10971     10970     10969     10972
     10971     10969     10972     10972     10975     10976     10972     10975     10977
     10972     10975     10978     10973     10972     10974     10973     10972     10975
     10974     10972     10975     10975     10978     10979     10975     10978     10980
     10975     10978     10981     10976     10975     10977     10976     10975     10978
     10977     10975     10978     10978     10981     10982     10978     10981     10983
     10978     10981     10984     10979     10978     10980     10979     10978     10981
     10980     10978     10981     10981     10984     10985     10981     10984     10986
     10981     10984     10987     10982     10981     10983     10982     10981     10984
     10983     10981     10984     10984     10987     10988     10984     10987     10989
     10984     10987     10990     10985     10984     10986     10985     10984     10987
     10986     10984     10987     10987     10990     10991     10987     10990     10992
     10987     10990     10993     10988     10987     10989     10988     10987     10990
     10989     10987     10990     10990     10993     10994     10990     10993     10995
     10990     10993     10996     10991     10990     10992     10991     10990     10993
     10992     10990     10993     10993     10996     10997     10993     10996     10998
     10993     10996     10999     10994     10993     10995     10994     10993     10996
     10995     10993     10996     10996     10999     11000     10996     10999     11001
     10996     10999     11002     10997     10996     10998     10997     10996     10999
     10998     10996     10999     10999     11002     11003     10999     11002     11004
     10999     11002     11005     11000     10999     11001     11000     10999     11002
     11001     10999     11002     11002     11005     11006     11002     11005     11007
     11002     11005     11008     11003     11002     11004     11003     11002     11005
     11004     11002     11005     11005     11008     11009     11005     11008     11010
     11005     11008     11011     11006     11005     11007     11006     11005     11008
     11007     11005     11008     11009     11008     11010     11009     11008     11011
     11010     11008     11011     11012     11014     11015     11012     11016     11017
     11012     11016     11018     11012     11016     11019     11012     11058     11055
     11012     11058     11059     11012     11058     11060     11013     11012     11014
     11013     11012     11016     11013     11012     11058     11014     11012     11016
     11014     11012     11058     11016     11012     11058     11016     11019     11020
     11016     11019     11050     11017     11016     11018     11017     11016     11019
     11018     11016     11019     11019     11020     11021     11019     11020     11022
     11019     11050     11048     11019     11050     11051     11019     11050     11055
     11020     11019     11050     11020     11022     11023     11020     11022     11024
     11020     11022     11025     11021     11020     11022     11022     11025     11026
     11022     11025     11027     11022     11025     11048     11023     11022     11024
     11023     11022     11025     11024     11022     11025     11025     11027     11028
     11025     11027     11029     11025     11027     11037     11025     11048     11045
     11025     11048     11049     11025     11048     11050     11026     11025     11027
     11026     11025     11048     11027     11025     11048     11027     11029     11030
     11027     11029     11031     11027     11029     11032     11027     11037     11035
     11027     11037     11038     11027     11037     11042     11028     11027     11029
     11028     11027     11037     11029     11027     11037     11029     11032     11033
     11029     11032     11034     11029     11032     11035     11030     11029     11031
     11030     11029     11032     11031     11029     11032     11032     11035     11036
     11032     11035     11037     11032     11035     11061     11033     11032     11034
     11033     11032     11035     11034     11032     11035     11035     11037     11038
     11035     11037     11042     11035     11061     11062     11035     11061     11063
     11035     11061     11067     11036     11035     11037     11036     11035     11061
     11037     11035     11061     11037     11038     11039     11037     11038     11040
     11037     11038     11041     11037     11042     11043     11037     11042     11044
     11037     11042     11045     11038     11037     11042     11039     11038     11040
     11039     11038     11041     11040     11038     11041     11042     11045     11046
     11042     11045     11047     11042     11045     11048     11043     11042     11044
     11043     11042     11045     11044     11042     11045     11045     11048     11049
     11045     11048     11050     11046     11045     11047     11046     11045     11048
     11047     11045     11048     11048     11050     11051     11048     11050     11055
     11049     11048     11050     11050     11051     11052     11050     11051     11053
     11050     11051     11054     11050     11055     11056     11050     11055     11057
     11050     11055     11058     11051     11050     11055     11052     11051     11053
     11052     11051     11054     11053     11051     11054     11055     11058     11059
     11055     11058     11060     11056     11055     11057     11056     11055     11058
     11057     11055     11058     11059     11058     11060     11061     11063     11064
     11061     11063     11065     11061     11063     11066     11061     11067     11068
     11061     11067     11069     11061     11067     11070     11062     11061     11063
     11062     11061     11067     11063     11061     11067     11064     11063     11065
     11064     11063     11066     11065     11063     11066     11067     11070     11071
     11067     11070     11072     11067     11070     11073     11068     11067     11069
     11068     11067     11070     11069     11067     11070     11070     11073     11074
     11070     11073     11075     11070     11073     11076     11071     11070     11072
     11071     11070     11073     11072     11070     11073     11073     11076     11077
     11073     11076     11078     11073     11076     11082     11074     11073     11075
     11074     11073     11076     11075     11073     11076     11076     11078     11079
     11076     11078     11080     11076     11078     11081     11076     11082     11083
     11076     11082     11084     11076     11082     11085     11077     11076     11078
     11077     11076     11082     11078     11076     11082     11079     11078     11080
     11079     11078     11081     11080     11078     11081     11083     11082     11084
     11083     11082     11085     11084     11082     11085     11086     11087     11088
     11086     11087     11089     11086     11087     11102     11086     11090     11091
     11086     11090     11092     11086     11090     11093     11086     11094     11095
     11086     11094     11096     11086     11094     11097     11086     11098     11099
     11086     11098     11100     11086     11098     11101     11087     11086     11090
     11087     11086     11094     11087     11086     11098     11087     11102     11103
     11087     11102     11104     11087     11102     11108     11088     11087     11089
     11088     11087     11102     11089     11087     11102     11090     11086     11094
     11090     11086     11098     11091     11090     11092     11091     11090     11093
     11092     11090     11093     11094     11086     11098     11095     11094     11096
     11095     11094     11097     11096     11094     11097     11099     11098     11100
     11099     11098     11101     11100     11098     11101     11102     11108     11105
     11103     11102     11104     11103     11102     11108     11104     11102     11108
     11105     11109     11110     11106     11105     11107     11106     11105     11108
     11106     11105     11109     11107     11105     11108     11107     11105     11109
     11108     11105     11109     11109     11110     11111     11109     11110     11112
     11109     11110     11113     11110     11113     11114     11110     11113     11115
     11110     11113     11121     11111     11110     11112     11111     11110     11113
     11112     11110     11113     11113     11115     11116     11113     11121     11122
     11113     11121     11123     11113     11121     11124     11114     11113     11115
     11114     11113     11121     11115     11113     11121     11115     11116     11117
     11115     11116     11118     11116     11118     11119     11116     11118     11120
     11116     11118     11130     11117     11116     11118     11118     11130     11131
     11118     11130     11132     11118     11130     11133     11119     11118     11120
     11119     11118     11130     11120     11118     11130     11121     11124     11125
     11122     11121     11123     11122     11121     11124     11123     11121     11124
     11124     11125     11126     11124     11125     11127     11125     11127     11128
     11125     11127     11129     11125     11127     11177     11126     11125     11127
     11127     11177     11178     11127     11177     11179     11127     11177     11180
     11128     11127     11129     11128     11127     11177     11129     11127     11177
     11130     11133     11134     11130     11133     11135     11130     11133     11136
     11131     11130     11132     11131     11130     11133     11132     11130     11133
     11133     11136     11137     11133     11136     11138     11133     11136     11139
     11134     11133     11135     11134     11133     11136     11135     11133     11136
     11136     11139     11140     11136     11139     11141     11136     11139     11142
     11137     11136     11138     11137     11136     11139     11138     11136     11139
     11139     11142     11143     11139     11142     11144     11139     11142     11145
     11140     11139     11141     11140     11139     11142     11141     11139     11142
     11142     11145     11146     11142     11145     11147     11142     11145     11148
     11143     11142     11144     11143     11142     11145     11144     11142     11145
     11145     11148     11149     11145     11148     11150     11146     11145     11147
     11146     11145     11148     11147     11145     11148     11148     11150     11151
     11148     11150     11152     11149     11148     11150     11150     11152     11153
     11150     11152     11154     11150     11152     11155     11151     11150     11152
     11152     11155     11156     11152     11155     11157     11152     11155     11158
     11153     11152     11154     11153     11152     11155     11154     11152     11155
     11155     11158     11159     11155     11158     11160     11155     11158     11161
     11156     11155     11157     11156     11155     11158     11157     11155     11158
     11158     11161     11162     11158     11161     11163     11158     11161     11164
     11159     11158     11160     11159     11158     11161     11160     11158     11161
     11161     11164     11165     11161     11164     11166     11161     11164     11167
     11162     11161     11163     11162     11161     11164     11163     11161     11164
     11164     11167     11168     11164     11167     11169     11164     11167     11170
     11165     11164     11166     11165     11164     11167     11166     11164     11167
     11167     11170     11171     11167     11170     11172     11167     11170     11173
     11168     11167     11169     11168     11167     11170     11169     11167     11170
     11170     11173     11174     11170     11173     11175     11170     11173     11176
     11171     11170     11172     11171     11170     11173     11172     11170     11173
     11174     11173     11175     11174     11173     11176     11175     11173     11176
     11177     11180     11181     11177     11180     11182     11177     11180     11183
     11178     11177     11179     11178     11177     11180     11179     11177     11180
     11180     11183     11184     11180     11183     11185     11180     11183     11186
     11181     11180     11182     11181     11180     11183     11182     11180     11183
     11183     11186     11187     11183     11186     11188     11183     11186     11189
     11184     11183     11185     11184     11183     11186     11185     11183     11186
     11186     11189     11190     11186     11189     11191     11186     11189     11192
     11187     11186     11188     11187     11186     11189     11188     11186     11189
     11189     11192     11193     11189     11192     11194     11189     11192     11195
     11190     11189     11191     11190     11189     11192     11191     11189     11192
     11192     11195     11196     11192     11195     11197     11193     11192     11194
     11193     11192     11195     11194     11192     11195     11195     11197     11198
     11195     11197     11199     11196     11195     11197     11197     11199     11200
     11197     11199     11201     11197     11199     11202     11198     11197     11199
     11199     11202     11203     11199     11202     11204     11199     11202     11205
     11200     11199     11201     11200     11199     11202     11201     11199     11202
     11202     11205     11206     11202     11205     11207     11202     11205     11208
     11203     11202     11204     11203     11202     11205     11204     11202     11205
     11205     11208     11209     11205     11208     11210     11205     11208     11211
     11206     11205     11207     11206     11205     11208     11207     11205     11208
     11208     11211     11212     11208     11211     11213     11208     11211     11214
     11209     11208     11210     11209     11208     11211     11210     11208     11211
     11211     11214     11215     11211     11214     11216     11211     11214     11217
     11212     11211     11213     11212     11211     11214     11213     11211     11214
     11214     11217     11218     11214     11217     11219     11214     11217     11220
     11215     11214     11216     11215     11214     11217     11216     11214     11217
     11217     11220     11221     11217     11220     11222     11217     11220     11223
     11218     11217     11219     11218     11217     11220     11219     11217     11220
     11221     11220     11222     11221     11220     11223     11222     11220     11223
     11224     11228     11229     11224     11228     11230     11224     11228     11231
     11225     11224     11226     11225     11224     11227     11225     11224     11228
     11226     11224     11227     11226     11224     11228     11227     11224     11228
     11228     11231     11232     11228     11231     11233     11228     11231     11238
     11229     11228     11230     11229     11228     11231     11230     11228     11231
     11231     11238     11234     11232     11231     11233     11232     11231     11238
     11233     11231     11238     11234     11237     11239     11235     11234     11236
     11235     11234     11237     11235     11234     11238     11236     11234     11237
     11236     11234     11238     11237     11234     11238     11237     11239     11240
     11237     11239     11241     11237     11239     11242     11239     11242     11243
     11239     11242     11244     11239     11242     11250     11240     11239     11241
     11240     11239     11242     11241     11239     11242     11242     11244     11245
     11242     11250     11251     11242     11250     11252     11242     11250     11253
     11243     11242     11244     11243     11242     11250     11244     11242     11250
     11244     11245     11246     11244     11245     11247     11245     11247     11248
     11245     11247     11249     11245     11247     11259     11246     11245     11247
     11247     11259     11260     11247     11259     11261     11247     11259     11262
     11248     11247     11249     11248     11247     11259     11249     11247     11259
     11250     11253     11254     11251     11250     11252     11251     11250     11253
     11252     11250     11253     11253     11254     11255     11253     11254     11256
     11254     11256     11257     11254     11256     11258     11254     11256     11306
     11255     11254     11256     11256     11306     11307     11256     11306     11308
     11256     11306     11309     11257     11256     11258     11257     11256     11306
     11258     11256     11306     11259     11262     11263     11259     11262     11264
     11259     11262     11265     11260     11259     11261     11260     11259     11262
     11261     11259     11262     11262     11265     11266     11262     11265     11267
     11262     11265     11268     11263     11262     11264     11263     11262     11265
     11264     11262     11265     11265     11268     11269     11265     11268     11270
     11265     11268     11271     11266     11265     11267     11266     11265     11268
     11267     11265     11268     11268     11271     11272     11268     11271     11273
     11268     11271     11274     11269     11268     11270     11269     11268     11271
     11270     11268     11271     11271     11274     11275     11271     11274     11276
     11271     11274     11277     11272     11271     11273     11272     11271     11274
     11273     11271     11274     11274     11277     11278     11274     11277     11279
     11275     11274     11276     11275     11274     11277     11276     11274     11277
     11277     11279     11280     11277     11279     11281     11278     11277     11279
     11279     11281     11282     11279     11281     11283     11279     11281     11284
     11280     11279     11281     11281     11284     11285     11281     11284     11286
     11281     11284     11287     11282     11281     11283     11282     11281     11284
     11283     11281     11284     11284     11287     11288     11284     11287     11289
     11284     11287     11290     11285     11284     11286     11285     11284     11287
     11286     11284     11287     11287     11290     11291     11287     11290     11292
     11287     11290     11293     11288     11287     11289     11288     11287     11290
     11289     11287     11290     11290     11293     11294     11290     11293     11295
     11290     11293     11296     11291     11290     11292     11291     11290     11293
     11292     11290     11293     11293     11296     11297     11293     11296     11298
     11293     11296     11299     11294     11293     11295     11294     11293     11296
     11295     11293     11296     11296     11299     11300     11296     11299     11301
     11296     11299     11302     11297     11296     11298     11297     11296     11299
     11298     11296     11299     11299     11302     11303     11299     11302     11304
     11299     11302     11305     11300     11299     11301     11300     11299     11302
     11301     11299     11302     11303     11302     11304     11303     11302     11305
     11304     11302     11305     11306     11309     11310     11306     11309     11311
     11306     11309     11312     11307     11306     11308     11307     11306     11309
     11308     11306     11309     11309     11312     11313     11309     11312     11314
     11309     11312     11315     11310     11309     11311     11310     11309     11312
     11311     11309     11312     11312     11315     11316     11312     11315     11317
     11312     11315     11318     11313     11312     11314     11313     11312     11315
     11314     11312     11315     11315     11318     11319     11315     11318     11320
     11315     11318     11321     11316     11315     11317     11316     11315     11318
     11317     11315     11318     11318     11321     11322     11318     11321     11323
     11318     11321     11324     11319     11318     11320     11319     11318     11321
     11320     11318     11321     11321     11324     11325     11321     11324     11326
     11322     11321     11323     11322     11321     11324     11323     11321     11324
     11324     11326     11327     11324     11326     11328     11325     11324     11326
     11326     11328     11329     11326     11328     11330     11326     11328     11331
     11327     11326     11328     11328     11331     11332     11328     11331     11333
     11328     11331     11334     11329     11328     11330     11329     11328     11331
     11330     11328     11331     11331     11334     11335     11331     11334     11336
     11331     11334     11337     11332     11331     11333     11332     11331     11334
     11333     11331     11334     11334     11337     11338     11334     11337     11339
     11334     11337     11340     11335     11334     11336     11335     11334     11337
     11336     11334     11337     11337     11340     11341     11337     11340     11342
     11337     11340     11343     11338     11337     11339     11338     11337     11340
     11339     11337     11340     11340     11343     11344     11340     11343     11345
     11340     11343     11346     11341     11340     11342     11341     11340     11343
     11342     11340     11343     11343     11346     11347     11343     11346     11348
     11343     11346     11349     11344     11343     11345     11344     11343     11346
     11345     11343     11346     11346     11349     11350     11346     11349     11351
     11346     11349     11352     11347     11346     11348     11347     11346     11349
     11348     11346     11349     11350     11349     11351     11350     11349     11352
     11351     11349     11352     11353     11357     11358     11353     11357     11359
     11353     11357     11360     11354     11353     11355     11354     11353     11356
     11354     11353     11357     11355     11353     11356     11355     11353     11357
     11356     11353     11357     11357     11360     11361     11357     11360     11362
     11357     11360     11367     11358     11357     11359     11358     11357     11360
     11359     11357     11360     11360     11367     11363     11361     11360     11362
     11361     11360     11367     11362     11360     11367     11363     11366     11368
     11364     11363     11365     11364     11363     11366     11364     11363     11367
     11365     11363     11366     11365     11363     11367     11366     11363     11367
     11366     11368     11369     11366     11368     11370     11366     11368     11371
     11368     11371     11372     11368     11371     11373     11368     11371     11379
     11369     11368     11370     11369     11368     11371     11370     11368     11371
     11371     11373     11374     11371     11379     11380     11371     11379     11381
     11371     11379     11382     11372     11371     11373     11372     11371     11379
     11373     11371     11379     11373     11374     11375     11373     11374     11376
     11374     11376     11377     11374     11376     11378     11374     11376     11388
     11375     11374     11376     11376     11388     11389     11376     11388     11390
     11376     11388     11391     11377     11376     11378     11377     11376     11388
     11378     11376     11388     11379     11382     11383     11380     11379     11381
     11380     11379     11382     11381     11379     11382     11382     11383     11384
     11382     11383     11385     11383     11385     11386     11383     11385     11387
     11383     11385     11435     11384     11383     11385     11385     11435     11436
     11385     11435     11437     11385     11435     11438     11386     11385     11387
     11386     11385     11435     11387     11385     11435     11388     11391     11392
     11388     11391     11393     11388     11391     11394     11389     11388     11390
     11389     11388     11391     11390     11388     11391     11391     11394     11395
     11391     11394     11396     11391     11394     11397     11392     11391     11393
     11392     11391     11394     11393     11391     11394     11394     11397     11398
     11394     11397     11399     11394     11397     11400     11395     11394     11396
     11395     11394     11397     11396     11394     11397     11397     11400     11401
     11397     11400     11402     11397     11400     11403     11398     11397     11399
     11398     11397     11400     11399     11397     11400     11400     11403     11404
     11400     11403     11405     11400     11403     11406     11401     11400     11402
     11401     11400     11403     11402     11400     11403     11403     11406     11407
     11403     11406     11408     11404     11403     11405     11404     11403     11406
     11405     11403     11406     11406     11408     11409     11406     11408     11410
     11407     11406     11408     11408     11410     11411     11408     11410     11412
     11408     11410     11413     11409     11408     11410     11410     11413     11414
     11410     11413     11415     11410     11413     11416     11411     11410     11412
     11411     11410     11413     11412     11410     11413     11413     11416     11417
     11413     11416     11418     11413     11416     11419     11414     11413     11415
     11414     11413     11416     11415     11413     11416     11416     11419     11420
     11416     11419     11421     11416     11419     11422     11417     11416     11418
     11417     11416     11419     11418     11416     11419     11419     11422     11423
     11419     11422     11424     11419     11422     11425     11420     11419     11421
     11420     11419     11422     11421     11419     11422     11422     11425     11426
     11422     11425     11427     11422     11425     11428     11423     11422     11424
     11423     11422     11425     11424     11422     11425     11425     11428     11429
     11425     11428     11430     11425     11428     11431     11426     11425     11427
     11426     11425     11428     11427     11425     11428     11428     11431     11432
     11428     11431     11433     11428     11431     11434     11429     11428     11430
     11429     11428     11431     11430     11428     11431     11432     11431     11433
     11432     11431     11434     11433     11431     11434     11435     11438     11439
     11435     11438     11440     11435     11438     11441     11436     11435     11437
     11436     11435     11438     11437     11435     11438     11438     11441     11442
     11438     11441     11443     11438     11441     11444     11439     11438     11440
     11439     11438     11441     11440     11438     11441     11441     11444     11445
     11441     11444     11446     11441     11444     11447     11442     11441     11443
     11442     11441     11444     11443     11441     11444     11444     11447     11448
     11444     11447     11449     11444     11447     11450     11445     11444     11446
     11445     11444     11447     11446     11444     11447     11447     11450     11451
     11447     11450     11452     11447     11450     11453     11448     11447     11449
     11448     11447     11450     11449     11447     11450     11450     11453     11454
     11450     11453     11455     11451     11450     11452     11451     11450     11453
     11452     11450     11453     11453     11455     11456     11453     11455     11457
     11454     11453     11455     11455     11457     11458     11455     11457     11459
     11455     11457     11460     11456     11455     11457     11457     11460     11461
     11457     11460     11462     11457     11460     11463     11458     11457     11459
     11458     11457     11460     11459     11457     11460     11460     11463     11464
     11460     11463     11465     11460     11463     11466     11461     11460     11462
     11461     11460     11463     11462     11460     11463     11463     11466     11467
     11463     11466     11468     11463     11466     11469     11464     11463     11465
     11464     11463     11466     11465     11463     11466     11466     11469     11470
     11466     11469     11471     11466     11469     11472     11467     11466     11468
     11467     11466     11469     11468     11466     11469     11469     11472     11473
     11469     11472     11474     11469     11472     11475     11470     11469     11471
     11470     11469     11472     11471     11469     11472     11472     11475     11476
     11472     11475     11477     11472     11475     11478     11473     11472     11474
     11473     11472     11475     11474     11472     11475     11475     11478     11479
     11475     11478     11480     11475     11478     11481     11476     11475     11477
     11476     11475     11478     11477     11475     11478     11479     11478     11480
     11479     11478     11481     11480     11478     11481     11482     11483     11484
     11482     11483     11485     11482     11483     11498     11482     11486     11487
     11482     11486     11488     11482     11486     11489     11482     11490     11491
     11482     11490     11492     11482     11490     11493     11482     11494     11495
     11482     11494     11496     11482     11494     11497     11483     11482     11486
     11483     11482     11490     11483     11482     11494     11483     11498     11499
     11483     11498     11500     11483     11498     11504     11484     11483     11485
     11484     11483     11498     11485     11483     11498     11486     11482     11490
     11486     11482     11494     11487     11486     11488     11487     11486     11489
     11488     11486     11489     11490     11482     11494     11491     11490     11492
     11491     11490     11493     11492     11490     11493     11495     11494     11496
     11495     11494     11497     11496     11494     11497     11498     11504     11501
     11499     11498     11500     11499     11498     11504     11500     11498     11504
     11501     11505     11506     11502     11501     11503     11502     11501     11504
     11502     11501     11505     11503     11501     11504     11503     11501     11505
     11504     11501     11505     11505     11506     11507     11505     11506     11508
     11505     11506     11509     11506     11509     11510     11506     11509     11511
     11506     11509     11517     11507     11506     11508     11507     11506     11509
     11508     11506     11509     11509     11511     11512     11509     11517     11518
     11509     11517     11519     11509     11517     11520     11510     11509     11511
     11510     11509     11517     11511     11509     11517     11511     11512     11513
     11511     11512     11514     11512     11514     11515     11512     11514     11516
     11512     11514     11526     11513     11512     11514     11514     11526     11527
     11514     11526     11528     11514     11526     11529     11515     11514     11516
     11515     11514     11526     11516     11514     11526     11517     11520     11521
     11518     11517     11519     11518     11517     11520     11519     11517     11520
     11520     11521     11522     11520     11521     11523     11521     11523     11524
     11521     11523     11525     11521     11523     11573     11522     11521     11523
     11523     11573     11574     11523     11573     11575     11523     11573     11576
     11524     11523     11525     11524     11523     11573     11525     11523     11573
     11526     11529     11530     11526     11529     11531     11526     11529     11532
     11527     11526     11528     11527     11526     11529     11528     11526     11529
     11529     11532     11533     11529     11532     11534     11529     11532     11535
     11530     11529     11531     11530     11529     11532     11531     11529     11532
     11532     11535     11536     11532     11535     11537     11532     11535     11538
     11533     11532     11534     11533     11532     11535     11534     11532     11535
     11535     11538     11539     11535     11538     11540     11535     11538     11541
     11536     11535     11537     11536     11535     11538     11537     11535     11538
     11538     11541     11542     11538     11541     11543     11538     11541     11544
     11539     11538     11540     11539     11538     11541     11540     11538     11541
     11541     11544     11545     11541     11544     11546     11542     11541     11543
     11542     11541     11544     11543     11541     11544     11544     11546     11547
     11544     11546     11548     11545     11544     11546     11546     11548     11549
     11546     11548     11550     11546     11548     11551     11547     11546     11548
     11548     11551     11552     11548     11551     11553     11548     11551     11554
     11549     11548     11550     11549     11548     11551     11550     11548     11551
     11551     11554     11555     11551     11554     11556     11551     11554     11557
     11552     11551     11553     11552     11551     11554     11553     11551     11554
     11554     11557     11558     11554     11557     11559     11554     11557     11560
     11555     11554     11556     11555     11554     11557     11556     11554     11557
     11557     11560     11561     11557     11560     11562     11557     11560     11563
     11558     11557     11559     11558     11557     11560     11559     11557     11560
     11560     11563     11564     11560     11563     11565     11560     11563     11566
     11561     11560     11562     11561     11560     11563     11562     11560     11563
     11563     11566     11567     11563     11566     11568     11563     11566     11569
     11564     11563     11565     11564     11563     11566     11565     11563     11566
     11566     11569     11570     11566     11569     11571     11566     11569     11572
     11567     11566     11568     11567     11566     11569     11568     11566     11569
     11570     11569     11571     11570     11569     11572     11571     11569     11572
     11573     11576     11577     11573     11576     11578     11573     11576     11579
     11574     11573     11575     11574     11573     11576     11575     11573     11576
     11576     11579     11580     11576     11579     11581     11576     11579     11582
     11577     11576     11578     11577     11576     11579     11578     11576     11579
     11579     11582     11583     11579     11582     11584     11579     11582     11585
     11580     11579     11581     11580     11579     11582     11581     11579     11582
     11582     11585     11586     11582     11585     11587     11582     11585     11588
     11583     11582     11584     11583     11582     11585     11584     11582     11585
     11585     11588     11589     11585     11588     11590     11585     11588     11591
     11586     11585     11587     11586     11585     11588     11587     11585     11588
     11588     11591     11592     11588     11591     11593     11589     11588     11590
     11589     11588     11591     11590     11588     11591     11591     11593     11594
     11591     11593     11595     11592     11591     11593     11593     11595     11596
     11593     11595     11597     11593     11595     11598     11594     11593     11595
     11595     11598     11599     11595     11598     11600     11595     11598     11601
     11596     11595     11597     11596     11595     11598     11597     11595     11598
     11598     11601     11602     11598     11601     11603     11598     11601     11604
     11599     11598     11600     11599     11598     11601     11600     11598     11601
     11601     11604     11605     11601     11604     11606     11601     11604     11607
     11602     11601     11603     11602     11601     11604     11603     11601     11604
     11604     11607     11608     11604     11607     11609     11604     11607     11610
     11605     11604     11606     11605     11604     11607     11606     11604     11607
     11607     11610     11611     11607     11610     11612     11607     11610     11613
     11608     11607     11609     11608     11607     11610     11609     11607     11610
     11610     11613     11614     11610     11613     11615     11610     11613     11616
     11611     11610     11612     11611     11610     11613     11612     11610     11613
     11613     11616     11617     11613     11616     11618     11613     11616     11619
     11614     11613     11615     11614     11613     11616     11615     11613     11616
     11617     11616     11618     11617     11616     11619     11618     11616     11619
     11620     11622     11623     11620     11624     11625     11620     11624     11626
     11620     11624     11627     11620     11666     11663     11620     11666     11667
     11620     11666     11668     11621     11620     11622     11621     11620     11624
     11621     11620     11666     11622     11620     11624     11622     11620     11666
     11624     11620     11666     11624     11627     11628     11624     11627     11658
     11625     11624     11626     11625     11624     11627     11626     11624     11627
     11627     11628     11629     11627     11628     11630     11627     11658     11656
     11627     11658     11659     11627     11658     11663     11628     11627     11658
     11628     11630     11631     11628     11630     11632     11628     11630     11633
     11629     11628     11630     11630     11633     11634     11630     11633     11635
     11630     11633     11656     11631     11630     11632     11631     11630     11633
     11632     11630     11633     11633     11635     11636     11633     11635     11637
     11633     11635     11645     11633     11656     11653     11633     11656     11657
     11633     11656     11658     11634     11633     11635     11634     11633     11656
     11635     11633     11656     11635     11637     11638     11635     11637     11639
     11635     11637     11640     11635     11645     11643     11635     11645     11646
     11635     11645     11650     11636     11635     11637     11636     11635     11645
     11637     11635     11645     11637     11640     11641     11637     11640     11642
     11637     11640     11643     11638     11637     11639     11638     11637     11640
     11639     11637     11640     11640     11643     11644     11640     11643     11645
     11640     11643     11669     11641     11640     11642     11641     11640     11643
     11642     11640     11643     11643     11645     11646     11643     11645     11650
     11643     11669     11670     11643     11669     11671     11643     11669     11675
     11644     11643     11645     11644     11643     11669     11645     11643     11669
     11645     11646     11647     11645     11646     11648     11645     11646     11649
     11645     11650     11651     11645     11650     11652     11645     11650     11653
     11646     11645     11650     11647     11646     11648     11647     11646     11649
     11648     11646     11649     11650     11653     11654     11650     11653     11655
     11650     11653     11656     11651     11650     11652     11651     11650     11653
     11652     11650     11653     11653     11656     11657     11653     11656     11658
     11654     11653     11655     11654     11653     11656     11655     11653     11656
     11656     11658     11659     11656     11658     11663     11657     11656     11658
     11658     11659     11660     11658     11659     11661     11658     11659     11662
     11658     11663     11664     11658     11663     11665     11658     11663     11666
     11659     11658     11663     11660     11659     11661     11660     11659     11662
     11661     11659     11662     11663     11666     11667     11663     11666     11668
     11664     11663     11665     11664     11663     11666     11665     11663     11666
     11667     11666     11668     11669     11671     11672     11669     11671     11673
     11669     11671     11674     11669     11675     11676     11669     11675     11677
     11669     11675     11678     11670     11669     11671     11670     11669     11675
     11671     11669     11675     11672     11671     11673     11672     11671     11674
     11673     11671     11674     11675     11678     11679     11675     11678     11680
     11675     11678     11681     11676     11675     11677     11676     11675     11678
     11677     11675     11678     11678     11681     11682     11678     11681     11683
     11678     11681     11684     11679     11678     11680     11679     11678     11681
     11680     11678     11681     11681     11684     11685     11681     11684     11686
     11681     11684     11690     11682     11681     11683     11682     11681     11684
     11683     11681     11684     11684     11686     11687     11684     11686     11688
     11684     11686     11689     11684     11690     11691     11684     11690     11692
     11684     11690     11693     11685     11684     11686     11685     11684     11690
     11686     11684     11690     11687     11686     11688     11687     11686     11689
     11688     11686     11689     11691     11690     11692     11691     11690     11693
     11692     11690     11693     11694     11695     11696     11694     11695     11697
     11694     11695     11698     11694     11699     11700     11694     11699     11701
     11694     11699     11702     11694     11703     11704     11694     11703     11705
     11694     11703     11706     11694     11707     11708     11694     11707     11709
     11694     11707     11710     11695     11694     11699     11695     11694     11703
     11695     11694     11707     11696     11695     11697     11696     11695     11698
     11697     11695     11698     11699     11694     11703     11699     11694     11707
     11700     11699     11701     11700     11699     11702     11701     11699     11702
     11703     11694     11707     11704     11703     11705     11704     11703     11706
     11705     11703     11706     11707     11710     11711     11707     11710     11712
     11707     11710     11717     11708     11707     11709     11708     11707     11710
     11709     11707     11710     11710     11717     11713     11711     11710     11712
     11711     11710     11717     11712     11710     11717     11713     11716     11718
     11714     11713     11715     11714     11713     11716     11714     11713     11717
     11715     11713     11716     11715     11713     11717     11716     11713     11717
     11716     11718     11719     11716     11718     11720     11716     11718     11723
     11718     11723     11721     11718     11723     11724     11718     11723     11725
     11719     11718     11720     11719     11718     11723     11720     11718     11723
     11721     11723     11724     11721     11723     11725     11721     11773     11774
     11721     11773     11775     11722     11721     11723     11722     11721     11773
     11723     11721     11773     11723     11725     11726     11723     11725     11727
     11723     11725     11729     11724     11723     11725     11725     11727     11728
     11725     11729     11730     11725     11729     11731     11726     11725     11727
     11726     11725     11729     11727     11725     11729     11729     11731     11732
     11729     11731     11733     11730     11729     11731     11731     11733     11734
     11731     11733     11735     11731     11733     11736     11732     11731     11733
     11733     11736     11737     11733     11736     11738     11733     11736     11739
     11734     11733     11735     11734     11733     11736     11735     11733     11736
     11736     11739     11740     11736     11739     11741     11736     11739     11742
     11737     11736     11738     11737     11736     11739     11738     11736     11739
     11739     11742     11743     11739     11742     11744     11739     11742     11745
     11740     11739     11741     11740     11739     11742     11741     11739     11742
     11742     11745     11746     11742     11745     11747     11742     11745     11748
     11743     11742     11744     11743     11742     11745     11744     11742     11745
     11745     11748     11749     11745     11748     11750     11745     11748     11751
     11746     11745     11747     11746     11745     11748     11747     11745     11748
     11748     11751     11752     11748     11751     11753     11748     11751     11754
     11749     11748     11750     11749     11748     11751     11750     11748     11751
     11751     11754     11755     11751     11754     11756     11751     11754     11757
     11752     11751     11753     11752     11751     11754     11753     11751     11754
     11754     11757     11758     11754     11757     11759     11754     11757     11760
     11755     11754     11756     11755     11754     11757     11756     11754     11757
     11757     11760     11761     11757     11760     11762     11757     11760     11763
     11758     11757     11759     11758     11757     11760     11759     11757     11760
     11760     11763     11764     11760     11763     11765     11760     11763     11766
     11761     11760     11762     11761     11760     11763     11762     11760     11763
     11763     11766     11767     11763     11766     11768     11763     11766     11769
     11764     11763     11765     11764     11763     11766     11765     11763     11766
     11766     11769     11770     11766     11769     11771     11766     11769     11772
     11767     11766     11768     11767     11766     11769     11768     11766     11769
     11770     11769     11771     11770     11769     11772     11771     11769     11772
     11773     11775     11776     11773     11775     11777     11773     11775     11778
     11774     11773     11775     11775     11778     11779     11775     11778     11780
     11775     11778     11781     11776     11775     11777     11776     11775     11778
     11777     11775     11778     11778     11781     11782     11778     11781     11783
     11778     11781     11784     11779     11778     11780     11779     11778     11781
     11780     11778     11781     11781     11784     11785     11781     11784     11786
     11781     11784     11787     11782     11781     11783     11782     11781     11784
     11783     11781     11784     11784     11787     11788     11784     11787     11789
     11784     11787     11790     11785     11784     11786     11785     11784     11787
     11786     11784     11787     11787     11790     11791     11787     11790     11792
     11787     11790     11793     11788     11787     11789     11788     11787     11790
     11789     11787     11790     11790     11793     11794     11790     11793     11795
     11790     11793     11796     11791     11790     11792     11791     11790     11793
     11792     11790     11793     11793     11796     11797     11793     11796     11798
     11793     11796     11799     11794     11793     11795     11794     11793     11796
     11795     11793     11796     11796     11799     11800     11796     11799     11801
     11796     11799     11802     11797     11796     11798     11797     11796     11799
     11798     11796     11799     11799     11802     11803     11799     11802     11804
     11799     11802     11805     11800     11799     11801     11800     11799     11802
     11801     11799     11802     11802     11805     11806     11802     11805     11807
     11802     11805     11808     11803     11802     11804     11803     11802     11805
     11804     11802     11805     11805     11808     11809     11805     11808     11810
     11805     11808     11811     11806     11805     11807     11806     11805     11808
     11807     11805     11808     11808     11811     11812     11808     11811     11813
     11808     11811     11814     11809     11808     11810     11809     11808     11811
     11810     11808     11811     11811     11814     11815     11811     11814     11816
     11811     11814     11817     11812     11811     11813     11812     11811     11814
     11813     11811     11814     11814     11817     11818     11814     11817     11819
     11814     11817     11820     11815     11814     11816     11815     11814     11817
     11816     11814     11817     11817     11820     11821     11817     11820     11822
     11817     11820     11823     11818     11817     11819     11818     11817     11820
     11819     11817     11820     11820     11823     11824     11820     11823     11825
     11820     11823     11826     11821     11820     11822     11821     11820     11823
     11822     11820     11823     11823     11826     11827     11823     11826     11828
     11823     11826     11829     11824     11823     11825     11824     11823     11826
     11825     11823     11826     11826     11829     11830     11826     11829     11831
     11826     11829     11832     11827     11826     11828     11827     11826     11829
     11828     11826     11829     11829     11832     11833     11829     11832     11834
     11829     11832     11835     11830     11829     11831     11830     11829     11832
     11831     11829     11832     11832     11835     11836     11832     11835     11837
     11832     11835     11838     11833     11832     11834     11833     11832     11835
     11834     11832     11835     11835     11838     11839     11835     11838     11840
     11835     11838     11841     11836     11835     11837     11836     11835     11838
     11837     11835     11838     11839     11838     11840     11839     11838     11841
     11840     11838     11841     11842     11846     11847     11842     11846     11848
     11842     11846     11849     11843     11842     11844     11843     11842     11845
     11843     11842     11846     11844     11842     11845     11844     11842     11846
     11845     11842     11846     11846     11849     11850     11846     11849     11851
     11846     11849     11856     11847     11846     11848     11847     11846     11849
     11848     11846     11849     11849     11856     11852     11850     11849     11851
     11850     11849     11856     11851     11849     11856     11852     11855     11857
     11853     11852     11854     11853     11852     11855     11853     11852     11856
     11854     11852     11855     11854     11852     11856     11855     11852     11856
     11855     11857     11858     11855     11857     11859     11855     11857     11860
     11857     11860     11861     11857     11860     11862     11857     11860     11868
     11858     11857     11859     11858     11857     11860     11859     11857     11860
     11860     11862     11863     11860     11868     11869     11860     11868     11870
     11860     11868     11871     11861     11860     11862     11861     11860     11868
     11862     11860     11868     11862     11863     11864     11862     11863     11865
     11863     11865     11866     11863     11865     11867     11863     11865     11877
     11864     11863     11865     11865     11877     11878     11865     11877     11879
     11865     11877     11880     11866     11865     11867     11866     11865     11877
     11867     11865     11877     11868     11871     11872     11869     11868     11870
     11869     11868     11871     11870     11868     11871     11871     11872     11873
     11871     11872     11874     11872     11874     11875     11872     11874     11876
     11872     11874     11924     11873     11872     11874     11874     11924     11925
     11874     11924     11926     11874     11924     11927     11875     11874     11876
     11875     11874     11924     11876     11874     11924     11877     11880     11881
     11877     11880     11882     11877     11880     11883     11878     11877     11879
     11878     11877     11880     11879     11877     11880     11880     11883     11884
     11880     11883     11885     11880     11883     11886     11881     11880     11882
     11881     11880     11883     11882     11880     11883     11883     11886     11887
     11883     11886     11888     11883     11886     11889     11884     11883     11885
     11884     11883     11886     11885     11883     11886     11886     11889     11890
     11886     11889     11891     11886     11889     11892     11887     11886     11888
     11887     11886     11889     11888     11886     11889     11889     11892     11893
     11889     11892     11894     11889     11892     11895     11890     11889     11891
     11890     11889     11892     11891     11889     11892     11892     11895     11896
     11892     11895     11897     11893     11892     11894     11893     11892     11895
     11894     11892     11895     11895     11897     11898     11895     11897     11899
     11896     11895     11897     11897     11899     11900     11897     11899     11901
     11897     11899     11902     11898     11897     11899     11899     11902     11903
     11899     11902     11904     11899     11902     11905     11900     11899     11901
     11900     11899     11902     11901     11899     11902     11902     11905     11906
     11902     11905     11907     11902     11905     11908     11903     11902     11904
     11903     11902     11905     11904     11902     11905     11905     11908     11909
     11905     11908     11910     11905     11908     11911     11906     11905     11907
     11906     11905     11908     11907     11905     11908     11908     11911     11912
     11908     11911     11913     11908     11911     11914     11909     11908     11910
     11909     11908     11911     11910     11908     11911     11911     11914     11915
     11911     11914     11916     11911     11914     11917     11912     11911     11913
     11912     11911     11914     11913     11911     11914     11914     11917     11918
     11914     11917     11919     11914     11917     11920     11915     11914     11916
     11915     11914     11917     11916     11914     11917     11917     11920     11921
     11917     11920     11922     11917     11920     11923     11918     11917     11919
     11918     11917     11920     11919     11917     11920     11921     11920     11922
     11921     11920     11923     11922     11920     11923     11924     11927     11928
     11924     11927     11929     11924     11927     11930     11925     11924     11926
     11925     11924     11927     11926     11924     11927     11927     11930     11931
     11927     11930     11932     11927     11930     11933     11928     11927     11929
     11928     11927     11930     11929     11927     11930     11930     11933     11934
     11930     11933     11935     11930     11933     11936     11931     11930     11932
     11931     11930     11933     11932     11930     11933     11933     11936     11937
     11933     11936     11938     11933     11936     11939     11934     11933     11935
     11934     11933     11936     11935     11933     11936     11936     11939     11940
     11936     11939     11941     11936     11939     11942     11937     11936     11938
     11937     11936     11939     11938     11936     11939     11939     11942     11943
     11939     11942     11944     11940     11939     11941     11940     11939     11942
     11941     11939     11942     11942     11944     11945     11942     11944     11946
     11943     11942     11944     11944     11946     11947     11944     11946     11948
     11944     11946     11949     11945     11944     11946     11946     11949     11950
     11946     11949     11951     11946     11949     11952     11947     11946     11948
     11947     11946     11949     11948     11946     11949     11949     11952     11953
     11949     11952     11954     11949     11952     11955     11950     11949     11951
     11950     11949     11952     11951     11949     11952     11952     11955     11956
     11952     11955     11957     11952     11955     11958     11953     11952     11954
     11953     11952     11955     11954     11952     11955     11955     11958     11959
     11955     11958     11960     11955     11958     11961     11956     11955     11957
     11956     11955     11958     11957     11955     11958     11958     11961     11962
     11958     11961     11963     11958     11961     11964     11959     11958     11960
     11959     11958     11961     11960     11958     11961     11961     11964     11965
     11961     11964     11966     11961     11964     11967     11962     11961     11963
     11962     11961     11964     11963     11961     11964     11964     11967     11968
     11964     11967     11969     11964     11967     11970     11965     11964     11966
     11965     11964     11967     11966     11964     11967     11968     11967     11969
     11968     11967     11970     11969     11967     11970     11971     11975     11976
     11971     11975     11977     11971     11975     11978     11972     11971     11973
     11972     11971     11974     11972     11971     11975     11973     11971     11974
     11973     11971     11975     11974     11971     11975     11975     11978     11979
     11975     11978     11980     11975     11978     11985     11976     11975     11977
     11976     11975     11978     11977     11975     11978     11978     11985     11981
     11979     11978     11980     11979     11978     11985     11980     11978     11985
     11981     11984     11986     11982     11981     11983     11982     11981     11984
     11982     11981     11985     11983     11981     11984     11983     11981     11985
     11984     11981     11985     11984     11986     11987     11984     11986     11988
     11984     11986     11989     11986     11989     11990     11986     11989     11991
     11986     11989     11997     11987     11986     11988     11987     11986     11989
     11988     11986     11989     11989     11991     11992     11989     11997     11998
     11989     11997     11999     11989     11997     12000     11990     11989     11991
     11990     11989     11997     11991     11989     11997     11991     11992     11993
     11991     11992     11994     11992     11994     11995     11992     11994     11996
     11992     11994     12006     11993     11992     11994     11994     12006     12007
     11994     12006     12008     11994     12006     12009     11995     11994     11996
     11995     11994     12006     11996     11994     12006     11997     12000     12001
     11998     11997     11999     11998     11997     12000     11999     11997     12000
     12000     12001     12002     12000     12001     12003     12001     12003     12004
     12001     12003     12005     12001     12003     12053     12002     12001     12003
     12003     12053     12054     12003     12053     12055     12003     12053     12056
     12004     12003     12005     12004     12003     12053     12005     12003     12053
     12006     12009     12010     12006     12009     12011     12006     12009     12012
     12007     12006     12008     12007     12006     12009     12008     12006     12009
     12009     12012     12013     12009     12012     12014     12009     12012     12015
     12010     12009     12011     12010     12009     12012     12011     12009     12012
     12012     12015     12016     12012     12015     12017     12012     12015     12018
     12013     12012     12014     12013     12012     12015     12014     12012     12015
     12015     12018     12019     12015     12018     12020     12015     12018     12021
     12016     12015     12017     12016     12015     12018     12017     12015     12018
     12018     12021     12022     12018     12021     12023     12018     12021     12024
     12019     12018     12020     12019     12018     12021     12020     12018     12021
     12021     12024     12025     12021     12024     12026     12022     12021     12023
     12022     12021     12024     12023     12021     12024     12024     12026     12027
     12024     12026     12028     12025     12024     12026     12026     12028     12029
     12026     12028     12030     12026     12028     12031     12027     12026     12028
     12028     12031     12032     12028     12031     12033     12028     12031     12034
     12029     12028     12030     12029     12028     12031     12030     12028     12031
     12031     12034     12035     12031     12034     12036     12031     12034     12037
     12032     12031     12033     12032     12031     12034     12033     12031     12034
     12034     12037     12038     12034     12037     12039     12034     12037     12040
     12035     12034     12036     12035     12034     12037     12036     12034     12037
     12037     12040     12041     12037     12040     12042     12037     12040     12043
     12038     12037     12039     12038     12037     12040     12039     12037     12040
     12040     12043     12044     12040     12043     12045     12040     12043     12046
     12041     12040     12042     12041     12040     12043     12042     12040     12043
     12043     12046     12047     12043     12046     12048     12043     12046     12049
     12044     12043     12045     12044     12043     12046     12045     12043     12046
     12046     12049     12050     12046     12049     12051     12046     12049     12052
     12047     12046     12048     12047     12046     12049     12048     12046     12049
     12050     12049     12051     12050     12049     12052     12051     12049     12052
     12053     12056     12057     12053     12056     12058     12053     12056     12059
     12054     12053     12055     12054     12053     12056     12055     12053     12056
     12056     12059     12060     12056     12059     12061     12056     12059     12062
     12057     12056     12058     12057     12056     12059     12058     12056     12059
     12059     12062     12063     12059     12062     12064     12059     12062     12065
     12060     12059     12061     12060     12059     12062     12061     12059     12062
     12062     12065     12066     12062     12065     12067     12062     12065     12068
     12063     12062     12064     12063     12062     12065     12064     12062     12065
     12065     12068     12069     12065     12068     12070     12065     12068     12071
     12066     12065     12067     12066     12065     12068     12067     12065     12068
     12068     12071     12072     12068     12071     12073     12069     12068     12070
     12069     12068     12071     12070     12068     12071     12071     12073     12074
     12071     12073     12075     12072     12071     12073     12073     12075     12076
     12073     12075     12077     12073     12075     12078     12074     12073     12075
     12075     12078     12079     12075     12078     12080     12075     12078     12081
     12076     12075     12077     12076     12075     12078     12077     12075     12078
     12078     12081     12082     12078     12081     12083     12078     12081     12084
     12079     12078     12080     12079     12078     12081     12080     12078     12081
     12081     12084     12085     12081     12084     12086     12081     12084     12087
     12082     12081     12083     12082     12081     12084     12083     12081     12084
     12084     12087     12088     12084     12087     12089     12084     12087     12090
     12085     12084     12086     12085     12084     12087     12086     12084     12087
     12087     12090     12091     12087     12090     12092     12087     12090     12093
     12088     12087     12089     12088     12087     12090     12089     12087     12090
     12090     12093     12094     12090     12093     12095     12090     12093     12096
     12091     12090     12092     12091     12090     12093     12092     12090     12093
     12093     12096     12097     12093     12096     12098     12093     12096     12099
     12094     12093     12095     12094     12093     12096     12095     12093     12096
     12097     12096     12098     12097     12096     12099     12098     12096     12099
     12100     12101     12102     12100     12101     12103     12100     12101     12104
     12100     12105     12106     12100     12105     12107     12100     12105     12108
     12100     12109     12110     12100     12109     12111     12100     12109     12112
     12100     12113     12114     12100     12113     12115     12100     12113     12116
     12101     12100     12105     12101     12100     12109     12101     12100     12113
     12102     12101     12103     12102     12101     12104     12103     12101     12104
     12105     12100     12109     12105     12100     12113     12106     12105     12107
     12106     12105     12108     12107     12105     12108     12109     12100     12113
     12110     12109     12111     12110     12109     12112     12111     12109     12112
     12113     12116     12117     12113     12116     12118     12113     12116     12123
     12114     12113     12115     12114     12113     12116     12115     12113     12116
     12116     12123     12119     12117     12116     12118     12117     12116     12123
     12118     12116     12123     12119     12122     12124     12120     12119     12121
     12120     12119     12122     12120     12119     12123     12121     12119     12122
     12121     12119     12123     12122     12119     12123     12122     12124     12125
     12122     12124     12126     12122     12124     12129     12124     12129     12127
     12124     12129     12130     12124     12129     12131     12125     12124     12126
     12125     12124     12129     12126     12124     12129     12127     12129     12130
     12127     12129     12131     12127     12179     12180     12127     12179     12181
     12128     12127     12129     12128     12127     12179     12129     12127     12179
     12129     12131     12132     12129     12131     12133     12129     12131     12135
     12130     12129     12131     12131     12133     12134     12131     12135     12136
     12131     12135     12137     12132     12131     12133     12132     12131     12135
     12133     12131     12135     12135     12137     12138     12135     12137     12139
     12136     12135     12137     12137     12139     12140     12137     12139     12141
     12137     12139     12142     12138     12137     12139     12139     12142     12143
     12139     12142     12144     12139     12142     12145     12140     12139     12141
     12140     12139     12142     12141     12139     12142     12142     12145     12146
     12142     12145     12147     12142     12145     12148     12143     12142     12144
     12143     12142     12145     12144     12142     12145     12145     12148     12149
     12145     12148     12150     12145     12148     12151     12146     12145     12147
     12146     12145     12148     12147     12145     12148     12148     12151     12152
     12148     12151     12153     12148     12151     12154     12149     12148     12150
     12149     12148     12151     12150     12148     12151     12151     12154     12155
     12151     12154     12156     12151     12154     12157     12152     12151     12153
     12152     12151     12154     12153     12151     12154     12154     12157     12158
     12154     12157     12159     12154     12157     12160     12155     12154     12156
     12155     12154     12157     12156     12154     12157     12157     12160     12161
     12157     12160     12162     12157     12160     12163     12158     12157     12159
     12158     12157     12160     12159     12157     12160     12160     12163     12164
     12160     12163     12165     12160     12163     12166     12161     12160     12162
     12161     12160     12163     12162     12160     12163     12163     12166     12167
     12163     12166     12168     12163     12166     12169     12164     12163     12165
     12164     12163     12166     12165     12163     12166     12166     12169     12170
     12166     12169     12171     12166     12169     12172     12167     12166     12168
     12167     12166     12169     12168     12166     12169     12169     12172     12173
     12169     12172     12174     12169     12172     12175     12170     12169     12171
     12170     12169     12172     12171     12169     12172     12172     12175     12176
     12172     12175     12177     12172     12175     12178     12173     12172     12174
     12173     12172     12175     12174     12172     12175     12176     12175     12177
     12176     12175     12178     12177     12175     12178     12179     12181     12182
     12179     12181     12183     12179     12181     12184     12180     12179     12181
     12181     12184     12185     12181     12184     12186     12181     12184     12187
     12182     12181     12183     12182     12181     12184     12183     12181     12184
     12184     12187     12188     12184     12187     12189     12184     12187     12190
     12185     12184     12186     12185     12184     12187     12186     12184     12187
     12187     12190     12191     12187     12190     12192     12187     12190     12193
     12188     12187     12189     12188     12187     12190     12189     12187     12190
     12190     12193     12194     12190     12193     12195     12190     12193     12196
     12191     12190     12192     12191     12190     12193     12192     12190     12193
     12193     12196     12197     12193     12196     12198     12193     12196     12199
     12194     12193     12195     12194     12193     12196     12195     12193     12196
     12196     12199     12200     12196     12199     12201     12196     12199     12202
     12197     12196     12198     12197     12196     12199     12198     12196     12199
     12199     12202     12203     12199     12202     12204     12199     12202     12205
     12200     12199     12201     12200     12199     12202     12201     12199     12202
     12202     12205     12206     12202     12205     12207     12202     12205     12208
     12203     12202     12204     12203     12202     12205     12204     12202     12205
     12205     12208     12209     12205     12208     12210     12205     12208     12211
     12206     12205     12207     12206     12205     12208     12207     12205     12208
     12208     12211     12212     12208     12211     12213     12208     12211     12214
     12209     12208     12210     12209     12208     12211     12210     12208     12211
     12211     12214     12215     12211     12214     12216     12211     12214     12217
     12212     12211     12213     12212     12211     12214     12213     12211     12214
     12214     12217     12218     12214     12217     12219     12214     12217     12220
     12215     12214     12216     12215     12214     12217     12216     12214     12217
     12217     12220     12221     12217     12220     12222     12217     12220     12223
     12218     12217     12219     12218     12217     12220     12219     12217     12220
     12220     12223     12224     12220     12223     12225     12220     12223     12226
     12221     12220     12222     12221     12220     12223     12222     12220     12223
     12223     12226     12227     12223     12226     12228     12223     12226     12229
     12224     12223     12225     12224     12223     12226     12225     12223     12226
     12226     12229     12230     12226     12229     12231     12226     12229     12232
     12227     12226     12228     12227     12226     12229     12228     12226     12229
     12229     12232     12233     12229     12232     12234     12229     12232     12235
     12230     12229     12231     12230     12229     12232     12231     12229     12232
     12232     12235     12236     12232     12235     12237     12232     12235     12238
     12233     12232     12234     12233     12232     12235     12234     12232     12235
     12235     12238     12239     12235     12238     12240     12235     12238     12241
     12236     12235     12237     12236     12235     12238     12237     12235     12238
     12238     12241     12242     12238     12241     12243     12238     12241     12244
     12239     12238     12240     12239     12238     12241     12240     12238     12241
     12241     12244     12245     12241     12244     12246     12241     12244     12247
     12242     12241     12243     12242     12241     12244     12243     12241     12244
     12245     12244     12246     12245     12244     12247     12246     12244     12247
     12248     12252     12253     12248     12252     12254     12248     12252     12255
     12249     12248     12250     12249     12248     12251     12249     12248     12252
     12250     12248     12251     12250     12248     12252     12251     12248     12252
     12252     12255     12256     12252     12255     12257     12252     12255     12262
     12253     12252     12254     12253     12252     12255     12254     12252     12255
     12255     12262     12258     12256     12255     12257     12256     12255     12262
     12257     12255     12262     12258     12261     12263     12259     12258     12260
     12259     12258     12261     12259     12258     12262     12260     12258     12261
     12260     12258     12262     12261     12258     12262     12261     12263     12264
     12261     12263     12265     12261     12263     12266     12263     12266     12267
     12263     12266     12268     12263     12266     12274     12264     12263     12265
     12264     12263     12266     12265     12263     12266     12266     12268     12269
     12266     12274     12275     12266     12274     12276     12266     12274     12277
     12267     12266     12268     12267     12266     12274     12268     12266     12274
     12268     12269     12270     12268     12269     12271     12269     12271     12272
     12269     12271     12273     12269     12271     12283     12270     12269     12271
     12271     12283     12284     12271     12283     12285     12271     12283     12286
     12272     12271     12273     12272     12271     12283     12273     12271     12283
     12274     12277     12278     12275     12274     12276     12275     12274     12277
     12276     12274     12277     12277     12278     12279     12277     12278     12280
     12278     12280     12281     12278     12280     12282     12278     12280     12330
     12279     12278     12280     12280     12330     12331     12280     12330     12332
     12280     12330     12333     12281     12280     12282     12281     12280     12330
     12282     12280     12330     12283     12286     12287     12283     12286     12288
     12283     12286     12289     12284     12283     12285     12284     12283     12286
     12285     12283     12286     12286     12289     12290     12286     12289     12291
     12286     12289     12292     12287     12286     12288     12287     12286     12289
     12288     12286     12289     12289     12292     12293     12289     12292     12294
     12289     12292     12295     12290     12289     12291     12290     12289     12292
     12291     12289     12292     12292     12295     12296     12292     12295     12297
     12292     12295     12298     12293     12292     12294     12293     12292     12295
     12294     12292     12295     12295     12298     12299     12295     12298     12300
     12295     12298     12301     12296     12295     12297     12296     12295     12298
     12297     12295     12298     12298     12301     12302     12298     12301     12303
     12299     12298     12300     12299     12298     12301     12300     12298     12301
     12301     12303     12304     12301     12303     12305     12302     12301     12303
     12303     12305     12306     12303     12305     12307     12303     12305     12308
     12304     12303     12305     12305     12308     12309     12305     12308     12310
     12305     12308     12311     12306     12305     12307     12306     12305     12308
     12307     12305     12308     12308     12311     12312     12308     12311     12313
     12308     12311     12314     12309     12308     12310     12309     12308     12311
     12310     12308     12311     12311     12314     12315     12311     12314     12316
     12311     12314     12317     12312     12311     12313     12312     12311     12314
     12313     12311     12314     12314     12317     12318     12314     12317     12319
     12314     12317     12320     12315     12314     12316     12315     12314     12317
     12316     12314     12317     12317     12320     12321     12317     12320     12322
     12317     12320     12323     12318     12317     12319     12318     12317     12320
     12319     12317     12320     12320     12323     12324     12320     12323     12325
     12320     12323     12326     12321     12320     12322     12321     12320     12323
     12322     12320     12323     12323     12326     12327     12323     12326     12328
     12323     12326     12329     12324     12323     12325     12324     12323     12326
     12325     12323     12326     12327     12326     12328     12327     12326     12329
     12328     12326     12329     12330     12333     12334     12330     12333     12335
     12330     12333     12336     12331     12330     12332     12331     12330     12333
     12332     12330     12333     12333     12336     12337     12333     12336     12338
     12333     12336     12339     12334     12333     12335     12334     12333     12336
     12335     12333     12336     12336     12339     12340     12336     12339     12341
     12336     12339     12342     12337     12336     12338     12337     12336     12339
     12338     12336     12339     12339     12342     12343     12339     12342     12344
     12339     12342     12345     12340     12339     12341     12340     12339     12342
     12341     12339     12342     12342     12345     12346     12342     12345     12347
     12342     12345     12348     12343     12342     12344     12343     12342     12345
     12344     12342     12345     12345     12348     12349     12345     12348     12350
     12346     12345     12347     12346     12345     12348     12347     12345     12348
     12348     12350     12351     12348     12350     12352     12349     12348     12350
     12350     12352     12353     12350     12352     12354     12350     12352     12355
     12351     12350     12352     12352     12355     12356     12352     12355     12357
     12352     12355     12358     12353     12352     12354     12353     12352     12355
     12354     12352     12355     12355     12358     12359     12355     12358     12360
     12355     12358     12361     12356     12355     12357     12356     12355     12358
     12357     12355     12358     12358     12361     12362     12358     12361     12363
     12358     12361     12364     12359     12358     12360     12359     12358     12361
     12360     12358     12361     12361     12364     12365     12361     12364     12366
     12361     12364     12367     12362     12361     12363     12362     12361     12364
     12363     12361     12364     12364     12367     12368     12364     12367     12369
     12364     12367     12370     12365     12364     12366     12365     12364     12367
     12366     12364     12367     12367     12370     12371     12367     12370     12372
     12367     12370     12373     12368     12367     12369     12368     12367     12370
     12369     12367     12370     12370     12373     12374     12370     12373     12375
     12370     12373     12376     12371     12370     12372     12371     12370     12373
     12372     12370     12373     12374     12373     12375     12374     12373     12376
     12375     12373     12376     12377     12379     12380     12377     12381     12382
     12377     12381     12383     12377     12381     12384     12377     12423     12420
     12377     12423     12424     12377     12423     12425     12378     12377     12379
     12378     12377     12381     12378     12377     12423     12379     12377     12381
     12379     12377     12423     12381     12377     12423     12381     12384     12385
     12381     12384     12415     12382     12381     12383     12382     12381     12384
     12383     12381     12384     12384     12385     12386     12384     12385     12387
     12384     12415     12413     12384     12415     12416     12384     12415     12420
     12385     12384     12415     12385     12387     12388     12385     12387     12389
     12385     12387     12390     12386     12385     12387     12387     12390     12391
     12387     12390     12392     12387     12390     12413     12388     12387     12389
     12388     12387     12390     12389     12387     12390     12390     12392     12393
     12390     12392     12394     12390     12392     12402     12390     12413     12410
     12390     12413     12414     12390     12413     12415     12391     12390     12392
     12391     12390     12413     12392     12390     12413     12392     12394     12395
     12392     12394     12396     12392     12394     12397     12392     12402     12400
     12392     12402     12403     12392     12402     12407     12393     12392     12394
     12393     12392     12402     12394     12392     12402     12394     12397     12398
     12394     12397     12399     12394     12397     12400     12395     12394     12396
     12395     12394     12397     12396     12394     12397     12397     12400     12401
     12397     12400     12402     12397     12400     12426     12398     12397     12399
     12398     12397     12400     12399     12397     12400     12400     12402     12403
     12400     12402     12407     12400     12426     12427     12400     12426     12428
     12400     12426     12432     12401     12400     12402     12401     12400     12426
     12402     12400     12426     12402     12403     12404     12402     12403     12405
     12402     12403     12406     12402     12407     12408     12402     12407     12409
     12402     12407     12410     12403     12402     12407     12404     12403     12405
     12404     12403     12406     12405     12403     12406     12407     12410     12411
     12407     12410     12412     12407     12410     12413     12408     12407     12409
     12408     12407     12410     12409     12407     12410     12410     12413     12414
     12410     12413     12415     12411     12410     12412     12411     12410     12413
     12412     12410     12413     12413     12415     12416     12413     12415     12420
     12414     12413     12415     12415     12416     12417     12415     12416     12418
     12415     12416     12419     12415     12420     12421     12415     12420     12422
     12415     12420     12423     12416     12415     12420     12417     12416     12418
     12417     12416     12419     12418     12416     12419     12420     12423     12424
     12420     12423     12425     12421     12420     12422     12421     12420     12423
     12422     12420     12423     12424     12423     12425     12426     12428     12429
     12426     12428     12430     12426     12428     12431     12426     12432     12433
     12426     12432     12434     12426     12432     12435     12427     12426     12428
     12427     12426     12432     12428     12426     12432     12429     12428     12430
     12429     12428     12431     12430     12428     12431     12432     12435     12436
     12432     12435     12437     12432     12435     12438     12433     12432     12434
     12433     12432     12435     12434     12432     12435     12435     12438     12439
     12435     12438     12440     12435     12438     12441     12436     12435     12437
     12436     12435     12438     12437     12435     12438     12438     12441     12442
     12438     12441     12443     12438     12441     12447     12439     12438     12440
     12439     12438     12441     12440     12438     12441     12441     12443     12444
     12441     12443     12445     12441     12443     12446     12441     12447     12448
     12441     12447     12449     12441     12447     12450     12442     12441     12443
     12442     12441     12447     12443     12441     12447     12444     12443     12445
     12444     12443     12446     12445     12443     12446     12448     12447     12449
     12448     12447     12450     12449     12447     12450     12451     12452     12453
     12451     12452     12454     12451     12452     12455     12451     12456     12457
     12451     12456     12458     12451     12456     12459     12451     12460     12461
     12451     12460     12462     12451     12460     12463     12451     12464     12465
     12451     12464     12466     12451     12464     12467     12452     12451     12456
     12452     12451     12460     12452     12451     12464     12453     12452     12454
     12453     12452     12455     12454     12452     12455     12456     12451     12460
     12456     12451     12464     12457     12456     12458     12457     12456     12459
     12458     12456     12459     12460     12451     12464     12461     12460     12462
     12461     12460     12463     12462     12460     12463     12464     12467     12468
     12464     12467     12469     12464     12467     12474     12465     12464     12466
     12465     12464     12467     12466     12464     12467     12467     12474     12470
     12468     12467     12469     12468     12467     12474     12469     12467     12474
     12470     12473     12475     12471     12470     12472     12471     12470     12473
     12471     12470     12474     12472     12470     12473     12472     12470     12474
     12473     12470     12474     12473     12475     12476     12473     12475     12477
     12473     12475     12480     12475     12480     12478     12475     12480     12481
     12475     12480     12482     12476     12475     12477     12476     12475     12480
     12477     12475     12480     12478     12480     12481     12478     12480     12482
     12478     12530     12531     12478     12530     12532     12479     12478     12480
     12479     12478     12530     12480     12478     12530     12480     12482     12483
     12480     12482     12484     12480     12482     12486     12481     12480     12482
     12482     12484     12485     12482     12486     12487     12482     12486     12488
     12483     12482     12484     12483     12482     12486     12484     12482     12486
     12486     12488     12489     12486     12488     12490     12487     12486     12488
     12488     12490     12491     12488     12490     12492     12488     12490     12493
     12489     12488     12490     12490     12493     12494     12490     12493     12495
     12490     12493     12496     12491     12490     12492     12491     12490     12493
     12492     12490     12493     12493     12496     12497     12493     12496     12498
     12493     12496     12499     12494     12493     12495     12494     12493     12496
     12495     12493     12496     12496     12499     12500     12496     12499     12501
     12496     12499     12502     12497     12496     12498     12497     12496     12499
     12498     12496     12499     12499     12502     12503     12499     12502     12504
     12499     12502     12505     12500     12499     12501     12500     12499     12502
     12501     12499     12502     12502     12505     12506     12502     12505     12507
     12502     12505     12508     12503     12502     12504     12503     12502     12505
     12504     12502     12505     12505     12508     12509     12505     12508     12510
     12505     12508     12511     12506     12505     12507     12506     12505     12508
     12507     12505     12508     12508     12511     12512     12508     12511     12513
     12508     12511     12514     12509     12508     12510     12509     12508     12511
     12510     12508     12511     12511     12514     12515     12511     12514     12516
     12511     12514     12517     12512     12511     12513     12512     12511     12514
     12513     12511     12514     12514     12517     12518     12514     12517     12519
     12514     12517     12520     12515     12514     12516     12515     12514     12517
     12516     12514     12517     12517     12520     12521     12517     12520     12522
     12517     12520     12523     12518     12517     12519     12518     12517     12520
     12519     12517     12520     12520     12523     12524     12520     12523     12525
     12520     12523     12526     12521     12520     12522     12521     12520     12523
     12522     12520     12523     12523     12526     12527     12523     12526     12528
     12523     12526     12529     12524     12523     12525     12524     12523     12526
     12525     12523     12526     12527     12526     12528     12527     12526     12529
     12528     12526     12529     12530     12532     12533     12530     12532     12534
     12530     12532     12535     12531     12530     12532     12532     12535     12536
     12532     12535     12537     12532     12535     12538     12533     12532     12534
     12533     12532     12535     12534     12532     12535     12535     12538     12539
     12535     12538     12540     12535     12538     12541     12536     12535     12537
     12536     12535     12538     12537     12535     12538     12538     12541     12542
     12538     12541     12543     12538     12541     12544     12539     12538     12540
     12539     12538     12541     12540     12538     12541     12541     12544     12545
     12541     12544     12546     12541     12544     12547     12542     12541     12543
     12542     12541     12544     12543     12541     12544     12544     12547     12548
     12544     12547     12549     12544     12547     12550     12545     12544     12546
     12545     12544     12547     12546     12544     12547     12547     12550     12551
     12547     12550     12552     12547     12550     12553     12548     12547     12549
     12548     12547     12550     12549     12547     12550     12550     12553     12554
     12550     12553     12555     12550     12553     12556     12551     12550     12552
     12551     12550     12553     12552     12550     12553     12553     12556     12557
     12553     12556     12558     12553     12556     12559     12554     12553     12555
     12554     12553     12556     12555     12553     12556     12556     12559     12560
     12556     12559     12561     12556     12559     12562     12557     12556     12558
     12557     12556     12559     12558     12556     12559     12559     12562     12563
     12559     12562     12564     12559     12562     12565     12560     12559     12561
     12560     12559     12562     12561     12559     12562     12562     12565     12566
     12562     12565     12567     12562     12565     12568     12563     12562     12564
     12563     12562     12565     12564     12562     12565     12565     12568     12569
     12565     12568     12570     12565     12568     12571     12566     12565     12567
     12566     12565     12568     12567     12565     12568     12568     12571     12572
     12568     12571     12573     12568     12571     12574     12569     12568     12570
     12569     12568     12571     12570     12568     12571     12571     12574     12575
     12571     12574     12576     12571     12574     12577     12572     12571     12573
     12572     12571     12574     12573     12571     12574     12574     12577     12578
     12574     12577     12579     12574     12577     12580     12575     12574     12576
     12575     12574     12577     12576     12574     12577     12577     12580     12581
     12577     12580     12582     12577     12580     12583     12578     12577     12579
     12578     12577     12580     12579     12577     12580     12580     12583     12584
     12580     12583     12585     12580     12583     12586     12581     12580     12582
     12581     12580     12583     12582     12580     12583     12583     12586     12587
     12583     12586     12588     12583     12586     12589     12584     12583     12585
     12584     12583     12586     12585     12583     12586     12586     12589     12590
     12586     12589     12591     12586     12589     12592     12587     12586     12588
     12587     12586     12589     12588     12586     12589     12589     12592     12593
     12589     12592     12594     12589     12592     12595     12590     12589     12591
     12590     12589     12592     12591     12589     12592     12592     12595     12596
     12592     12595     12597     12592     12595     12598     12593     12592     12594
     12593     12592     12595     12594     12592     12595     12596     12595     12597
     12596     12595     12598     12597     12595     12598     12599     12601     12602
     12599     12603     12604     12599     12603     12605     12599     12603     12606
     12599     12645     12642     12599     12645     12646     12599     12645     12647
     12600     12599     12601     12600     12599     12603     12600     12599     12645
     12601     12599     12603     12601     12599     12645     12603     12599     12645
     12603     12606     12607     12603     12606     12637     12604     12603     12605
     12604     12603     12606     12605     12603     12606     12606     12607     12608
     12606     12607     12609     12606     12637     12635     12606     12637     12638
     12606     12637     12642     12607     12606     12637     12607     12609     12610
     12607     12609     12611     12607     12609     12612     12608     12607     12609
     12609     12612     12613     12609     12612     12614     12609     12612     12635
     12610     12609     12611     12610     12609     12612     12611     12609     12612
     12612     12614     12615     12612     12614     12616     12612     12614     12624
     12612     12635     12632     12612     12635     12636     12612     12635     12637
     12613     12612     12614     12613     12612     12635     12614     12612     12635
     12614     12616     12617     12614     12616     12618     12614     12616     12619
     12614     12624     12622     12614     12624     12625     12614     12624     12629
     12615     12614     12616     12615     12614     12624     12616     12614     12624
     12616     12619     12620     12616     12619     12621     12616     12619     12622
     12617     12616     12618     12617     12616     12619     12618     12616     12619
     12619     12622     12623     12619     12622     12624     12619     12622     12648
     12620     12619     12621     12620     12619     12622     12621     12619     12622
     12622     12624     12625     12622     12624     12629     12622     12648     12649
     12622     12648     12650     12622     12648     12654     12623     12622     12624
     12623     12622     12648     12624     12622     12648     12624     12625     12626
     12624     12625     12627     12624     12625     12628     12624     12629     12630
     12624     12629     12631     12624     12629     12632     12625     12624     12629
     12626     12625     12627     12626     12625     12628     12627     12625     12628
     12629     12632     12633     12629     12632     12634     12629     12632     12635
     12630     12629     12631     12630     12629     12632     12631     12629     12632
     12632     12635     12636     12632     12635     12637     12633     12632     12634
     12633     12632     12635     12634     12632     12635     12635     12637     12638
     12635     12637     12642     12636     12635     12637     12637     12638     12639
     12637     12638     12640     12637     12638     12641     12637     12642     12643
     12637     12642     12644     12637     12642     12645     12638     12637     12642
     12639     12638     12640     12639     12638     12641     12640     12638     12641
     12642     12645     12646     12642     12645     12647     12643     12642     12644
     12643     12642     12645     12644     12642     12645     12646     12645     12647
     12648     12650     12651     12648     12650     12652     12648     12650     12653
     12648     12654     12655     12648     12654     12656     12648     12654     12657
     12649     12648     12650     12649     12648     12654     12650     12648     12654
     12651     12650     12652     12651     12650     12653     12652     12650     12653
     12654     12657     12658     12654     12657     12659     12654     12657     12660
     12655     12654     12656     12655     12654     12657     12656     12654     12657
     12657     12660     12661     12657     12660     12662     12657     12660     12663
     12658     12657     12659     12658     12657     12660     12659     12657     12660
     12660     12663     12664     12660     12663     12665     12660     12663     12669
     12661     12660     12662     12661     12660     12663     12662     12660     12663
     12663     12665     12666     12663     12665     12667     12663     12665     12668
     12663     12669     12670     12663     12669     12671     12663     12669     12672
     12664     12663     12665     12664     12663     12669     12665     12663     12669
     12666     12665     12667     12666     12665     12668     12667     12665     12668
     12670     12669     12671     12670     12669     12672     12671     12669     12672
     12673     12674     12675     12673     12674     12676     12673     12674     12677
     12673     12678     12679     12673     12678     12680     12673     12678     12681
     12673     12682     12683     12673     12682     12684     12673     12682     12685
     12673     12686     12687     12673     12686     12688     12673     12686     12689
     12674     12673     12678     12674     12673     12682     12674     12673     12686
     12675     12674     12676     12675     12674     12677     12676     12674     12677
     12678     12673     12682     12678     12673     12686     12679     12678     12680
     12679     12678     12681     12680     12678     12681     12682     12673     12686
     12683     12682     12684     12683     12682     12685     12684     12682     12685
     12686     12689     12690     12686     12689     12691     12686     12689     12696
     12687     12686     12688     12687     12686     12689     12688     12686     12689
     12689     12696     12692     12690     12689     12691     12690     12689     12696
     12691     12689     12696     12692     12695     12697     12693     12692     12694
     12693     12692     12695     12693     12692     12696     12694     12692     12695
     12694     12692     12696     12695     12692     12696     12695     12697     12698
     12695     12697     12699     12695     12697     12702     12697     12702     12700
     12697     12702     12703     12697     12702     12704     12698     12697     12699
     12698     12697     12702     12699     12697     12702     12700     12702     12703
     12700     12702     12704     12700     12752     12753     12700     12752     12754
     12701     12700     12702     12701     12700     12752     12702     12700     12752
     12702     12704     12705     12702     12704     12706     12702     12704     12708
     12703     12702     12704     12704     12706     12707     12704     12708     12709
     12704     12708     12710     12705     12704     12706     12705     12704     12708
     12706     12704     12708     12708     12710     12711     12708     12710     12712
     12709     12708     12710     12710     12712     12713     12710     12712     12714
     12710     12712     12715     12711     12710     12712     12712     12715     12716
     12712     12715     12717     12712     12715     12718     12713     12712     12714
     12713     12712     12715     12714     12712     12715     12715     12718     12719
     12715     12718     12720     12715     12718     12721     12716     12715     12717
     12716     12715     12718     12717     12715     12718     12718     12721     12722
     12718     12721     12723     12718     12721     12724     12719     12718     12720
     12719     12718     12721     12720     12718     12721     12721     12724     12725
     12721     12724     12726     12721     12724     12727     12722     12721     12723
     12722     12721     12724     12723     12721     12724     12724     12727     12728
     12724     12727     12729     12724     12727     12730     12725     12724     12726
     12725     12724     12727     12726     12724     12727     12727     12730     12731
     12727     12730     12732     12727     12730     12733     12728     12727     12729
     12728     12727     12730     12729     12727     12730     12730     12733     12734
     12730     12733     12735     12730     12733     12736     12731     12730     12732
     12731     12730     12733     12732     12730     12733     12733     12736     12737
     12733     12736     12738     12733     12736     12739     12734     12733     12735
     12734     12733     12736     12735     12733     12736     12736     12739     12740
     12736     12739     12741     12736     12739     12742     12737     12736     12738
     12737     12736     12739     12738     12736     12739     12739     12742     12743
     12739     12742     12744     12739     12742     12745     12740     12739     12741
     12740     12739     12742     12741     12739     12742     12742     12745     12746
     12742     12745     12747     12742     12745     12748     12743     12742     12744
     12743     12742     12745     12744     12742     12745     12745     12748     12749
     12745     12748     12750     12745     12748     12751     12746     12745     12747
     12746     12745     12748     12747     12745     12748     12749     12748     12750
     12749     12748     12751     12750     12748     12751     12752     12754     12755
     12752     12754     12756     12752     12754     12757     12753     12752     12754
     12754     12757     12758     12754     12757     12759     12754     12757     12760
     12755     12754     12756     12755     12754     12757     12756     12754     12757
     12757     12760     12761     12757     12760     12762     12757     12760     12763
     12758     12757     12759     12758     12757     12760     12759     12757     12760
     12760     12763     12764     12760     12763     12765     12760     12763     12766
     12761     12760     12762     12761     12760     12763     12762     12760     12763
     12763     12766     12767     12763     12766     12768     12763     12766     12769
     12764     12763     12765     12764     12763     12766     12765     12763     12766
     12766     12769     12770     12766     12769     12771     12766     12769     12772
     12767     12766     12768     12767     12766     12769     12768     12766     12769
     12769     12772     12773     12769     12772     12774     12769     12772     12775
     12770     12769     12771     12770     12769     12772     12771     12769     12772
     12772     12775     12776     12772     12775     12777     12772     12775     12778
     12773     12772     12774     12773     12772     12775     12774     12772     12775
     12775     12778     12779     12775     12778     12780     12775     12778     12781
     12776     12775     12777     12776     12775     12778     12777     12775     12778
     12778     12781     12782     12778     12781     12783     12778     12781     12784
     12779     12778     12780     12779     12778     12781     12780     12778     12781
     12781     12784     12785     12781     12784     12786     12781     12784     12787
     12782     12781     12783     12782     12781     12784     12783     12781     12784
     12784     12787     12788     12784     12787     12789     12784     12787     12790
     12785     12784     12786     12785     12784     12787     12786     12784     12787
     12787     12790     12791     12787     12790     12792     12787     12790     12793
     12788     12787     12789     12788     12787     12790     12789     12787     12790
     12790     12793     12794     12790     12793     12795     12790     12793     12796
     12791     12790     12792     12791     12790     12793     12792     12790     12793
     12793     12796     12797     12793     12796     12798     12793     12796     12799
     12794     12793     12795     12794     12793     12796     12795     12793     12796
     12796     12799     12800     12796     12799     12801     12796     12799     12802
     12797     12796     12798     12797     12796     12799     12798     12796     12799
     12799     12802     12803     12799     12802     12804     12799     12802     12805
     12800     12799     12801     12800     12799     12802     12801     12799     12802
     12802     12805     12806     12802     12805     12807     12802     12805     12808
     12803     12802     12804     12803     12802     12805     12804     12802     12805
     12805     12808     12809     12805     12808     12810     12805     12808     12811
     12806     12805     12807     12806     12805     12808     12807     12805     12808
     12808     12811     12812     12808     12811     12813     12808     12811     12814
     12809     12808     12810     12809     12808     12811     12810     12808     12811
     12811     12814     12815     12811     12814     12816     12811     12814     12817
     12812     12811     12813     12812     12811     12814     12813     12811     12814
     12814     12817     12818     12814     12817     12819     12814     12817     12820
     12815     12814     12816     12815     12814     12817     12816     12814     12817
     12818     12817     12819     12818     12817     12820     12819     12817     12820
     12821     12822     12823     12821     12822     12824     12821     12822     12837
     12821     12825     12826     12821     12825     12827     12821     12825     12828
     12821     12829     12830     12821     12829     12831     12821     12829     12832
     12821     12833     12834     12821     12833     12835     12821     12833     12836
     12822     12821     12825     12822     12821     12829     12822     12821     12833
     12822     12837     12838     12822     12837     12839     12822     12837     12843
     12823     12822     12824     12823     12822     12837     12824     12822     12837
     12825     12821     12829     12825     12821     12833     12826     12825     12827
     12826     12825     12828     12827     12825     12828     12829     12821     12833
     12830     12829     12831     12830     12829     12832     12831     12829     12832
     12834     12833     12835     12834     12833     12836     12835     12833     12836
     12837     12843     12840     12838     12837     12839     12838     12837     12843
     12839     12837     12843     12840     12844     12845     12841     12840     12842
     12841     12840     12843     12841     12840     12844     12842     12840     12843
     12842     12840     12844     12843     12840     12844     12844     12845     12846
     12844     12845     12847     12844     12845     12848     12845     12848     12849
     12845     12848     12850     12845     12848     12856     12846     12845     12847
     12846     12845     12848     12847     12845     12848     12848     12850     12851
     12848     12856     12857     12848     12856     12858     12848     12856     12859
     12849     12848     12850     12849     12848     12856     12850     12848     12856
     12850     12851     12852     12850     12851     12853     12851     12853     12854
     12851     12853     12855     12851     12853     12865     12852     12851     12853
     12853     12865     12866     12853     12865     12867     12853     12865     12868
     12854     12853     12855     12854     12853     12865     12855     12853     12865
     12856     12859     12860     12857     12856     12858     12857     12856     12859
     12858     12856     12859     12859     12860     12861     12859     12860     12862
     12860     12862     12863     12860     12862     12864     12860     12862     12912
     12861     12860     12862     12862     12912     12913     12862     12912     12914
     12862     12912     12915     12863     12862     12864     12863     12862     12912
     12864     12862     12912     12865     12868     12869     12865     12868     12870
     12865     12868     12871     12866     12865     12867     12866     12865     12868
     12867     12865     12868     12868     12871     12872     12868     12871     12873
     12868     12871     12874     12869     12868     12870     12869     12868     12871
     12870     12868     12871     12871     12874     12875     12871     12874     12876
     12871     12874     12877     12872     12871     12873     12872     12871     12874
     12873     12871     12874     12874     12877     12878     12874     12877     12879
     12874     12877     12880     12875     12874     12876     12875     12874     12877
     12876     12874     12877     12877     12880     12881     12877     12880     12882
     12877     12880     12883     12878     12877     12879     12878     12877     12880
     12879     12877     12880     12880     12883     12884     12880     12883     12885
     12881     12880     12882     12881     12880     12883     12882     12880     12883
     12883     12885     12886     12883     12885     12887     12884     12883     12885
     12885     12887     12888     12885     12887     12889     12885     12887     12890
     12886     12885     12887     12887     12890     12891     12887     12890     12892
     12887     12890     12893     12888     12887     12889     12888     12887     12890
     12889     12887     12890     12890     12893     12894     12890     12893     12895
     12890     12893     12896     12891     12890     12892     12891     12890     12893
     12892     12890     12893     12893     12896     12897     12893     12896     12898
     12893     12896     12899     12894     12893     12895     12894     12893     12896
     12895     12893     12896     12896     12899     12900     12896     12899     12901
     12896     12899     12902     12897     12896     12898     12897     12896     12899
     12898     12896     12899     12899     12902     12903     12899     12902     12904
     12899     12902     12905     12900     12899     12901     12900     12899     12902
     12901     12899     12902     12902     12905     12906     12902     12905     12907
     12902     12905     12908     12903     12902     12904     12903     12902     12905
     12904     12902     12905     12905     12908     12909     12905     12908     12910
     12905     12908     12911     12906     12905     12907     12906     12905     12908
     12907     12905     12908     12909     12908     12910     12909     12908     12911
     12910     12908     12911     12912     12915     12916     12912     12915     12917
     12912     12915     12918     12913     12912     12914     12913     12912     12915
     12914     12912     12915     12915     12918     12919     12915     12918     12920
     12915     12918     12921     12916     12915     12917     12916     12915     12918
     12917     12915     12918     12918     12921     12922     12918     12921     12923
     12918     12921     12924     12919     12918     12920     12919     12918     12921
     12920     12918     12921     12921     12924     12925     12921     12924     12926
     12921     12924     12927     12922     12921     12923     12922     12921     12924
     12923     12921     12924     12924     12927     12928     12924     12927     12929
     12924     12927     12930     12925     12924     12926     12925     12924     12927
     12926     12924     12927     12927     12930     12931     12927     12930     12932
     12928     12927     12929     12928     12927     12930     12929     12927     12930
     12930     12932     12933     12930     12932     12934     12931     12930     12932
     12932     12934     12935     12932     12934     12936     12932     12934     12937
     12933     12932     12934     12934     12937     12938     12934     12937     12939
     12934     12937     12940     12935     12934     12936     12935     12934     12937
     12936     12934     12937     12937     12940     12941     12937     12940     12942
     12937     12940     12943     12938     12937     12939     12938     12937     12940
     12939     12937     12940     12940     12943     12944     12940     12943     12945
     12940     12943     12946     12941     12940     12942     12941     12940     12943
     12942     12940     12943     12943     12946     12947     12943     12946     12948
     12943     12946     12949     12944     12943     12945     12944     12943     12946
     12945     12943     12946     12946     12949     12950     12946     12949     12951
     12946     12949     12952     12947     12946     12948     12947     12946     12949
     12948     12946     12949     12949     12952     12953     12949     12952     12954
     12949     12952     12955     12950     12949     12951     12950     12949     12952
     12951     12949     12952     12952     12955     12956     12952     12955     12957
     12952     12955     12958     12953     12952     12954     12953     12952     12955
     12954     12952     12955     12956     12955     12957     12956     12955     12958
     12957     12955     12958     12959     12960     12961     12959     12960     12962
     12959     12960     12975     12959     12963     12964     12959     12963     12965
     12959     12963     12966     12959     12967     12968     12959     12967     12969
     12959     12967     12970     12959     12971     12972     12959     12971     12973
     12959     12971     12974     12960     12959     12963     12960     12959     12967
     12960     12959     12971     12960     12975     12976     12960     12975     12977
     12960     12975     12981     12961     12960     12962     12961     12960     12975
     12962     12960     12975     12963     12959     12967     12963     12959     12971
     12964     12963     12965     12964     12963     12966     12965     12963     12966
     12967     12959     12971     12968     12967     12969     12968     12967     12970
     12969     12967     12970     12972     12971     12973     12972     12971     12974
     12973     12971     12974     12975     12981     12978     12976     12975     12977
     12976     12975     12981     12977     12975     12981     12978     12982     12983
     12979     12978     12980     12979     12978     12981     12979     12978     12982
     12980     12978     12981     12980     12978     12982     12981     12978     12982
     12982     12983     12984     12982     12983     12985     12982     12983     12986
     12983     12986     12987     12983     12986     12988     12983     12986     12994
     12984     12983     12985     12984     12983     12986     12985     12983     12986
     12986     12988     12989     12986     12994     12995     12986     12994     12996
     12986     12994     12997     12987     12986     12988     12987     12986     12994
     12988     12986     12994     12988     12989     12990     12988     12989     12991
     12989     12991     12992     12989     12991     12993     12989     12991     13003
     12990     12989     12991     12991     13003     13004     12991     13003     13005
     12991     13003     13006     12992     12991     12993     12992     12991     13003
     12993     12991     13003     12994     12997     12998     12995     12994     12996
     12995     12994     12997     12996     12994     12997     12997     12998     12999
     12997     12998     13000     12998     13000     13001     12998     13000     13002
     12998     13000     13050     12999     12998     13000     13000     13050     13051
     13000     13050     13052     13000     13050     13053     13001     13000     13002
     13001     13000     13050     13002     13000     13050     13003     13006     13007
     13003     13006     13008     13003     13006     13009     13004     13003     13005
     13004     13003     13006     13005     13003     13006     13006     13009     13010
     13006     13009     13011     13006     13009     13012     13007     13006     13008
     13007     13006     13009     13008     13006     13009     13009     13012     13013
     13009     13012     13014     13009     13012     13015     13010     13009     13011
     13010     13009     13012     13011     13009     13012     13012     13015     13016
     13012     13015     13017     13012     13015     13018     13013     13012     13014
     13013     13012     13015     13014     13012     13015     13015     13018     13019
     13015     13018     13020     13015     13018     13021     13016     13015     13017
     13016     13015     13018     13017     13015     13018     13018     13021     13022
     13018     13021     13023     13019     13018     13020     13019     13018     13021
     13020     13018     13021     13021     13023     13024     13021     13023     13025
     13022     13021     13023     13023     13025     13026     13023     13025     13027
     13023     13025     13028     13024     13023     13025     13025     13028     13029
     13025     13028     13030     13025     13028     13031     13026     13025     13027
     13026     13025     13028     13027     13025     13028     13028     13031     13032
     13028     13031     13033     13028     13031     13034     13029     13028     13030
     13029     13028     13031     13030     13028     13031     13031     13034     13035
     13031     13034     13036     13031     13034     13037     13032     13031     13033
     13032     13031     13034     13033     13031     13034     13034     13037     13038
     13034     13037     13039     13034     13037     13040     13035     13034     13036
     13035     13034     13037     13036     13034     13037     13037     13040     13041
     13037     13040     13042     13037     13040     13043     13038     13037     13039
     13038     13037     13040     13039     13037     13040     13040     13043     13044
     13040     13043     13045     13040     13043     13046     13041     13040     13042
     13041     13040     13043     13042     13040     13043     13043     13046     13047
     13043     13046     13048     13043     13046     13049     13044     13043     13045
     13044     13043     13046     13045     13043     13046     13047     13046     13048
     13047     13046     13049     13048     13046     13049     13050     13053     13054
     13050     13053     13055     13050     13053     13056     13051     13050     13052
     13051     13050     13053     13052     13050     13053     13053     13056     13057
     13053     13056     13058     13053     13056     13059     13054     13053     13055
     13054     13053     13056     13055     13053     13056     13056     13059     13060
     13056     13059     13061     13056     13059     13062     13057     13056     13058
     13057     13056     13059     13058     13056     13059     13059     13062     13063
     13059     13062     13064     13059     13062     13065     13060     13059     13061
     13060     13059     13062     13061     13059     13062     13062     13065     13066
     13062     13065     13067     13062     13065     13068     13063     13062     13064
     13063     13062     13065     13064     13062     13065     13065     13068     13069
     13065     13068     13070     13066     13065     13067     13066     13065     13068
     13067     13065     13068     13068     13070     13071     13068     13070     13072
     13069     13068     13070     13070     13072     13073     13070     13072     13074
     13070     13072     13075     13071     13070     13072     13072     13075     13076
     13072     13075     13077     13072     13075     13078     13073     13072     13074
     13073     13072     13075     13074     13072     13075     13075     13078     13079
     13075     13078     13080     13075     13078     13081     13076     13075     13077
     13076     13075     13078     13077     13075     13078     13078     13081     13082
     13078     13081     13083     13078     13081     13084     13079     13078     13080
     13079     13078     13081     13080     13078     13081     13081     13084     13085
     13081     13084     13086     13081     13084     13087     13082     13081     13083
     13082     13081     13084     13083     13081     13084     13084     13087     13088
     13084     13087     13089     13084     13087     13090     13085     13084     13086
     13085     13084     13087     13086     13084     13087     13087     13090     13091
     13087     13090     13092     13087     13090     13093     13088     13087     13089
     13088     13087     13090     13089     13087     13090     13090     13093     13094
     13090     13093     13095     13090     13093     13096     13091     13090     13092
     13091     13090     13093     13092     13090     13093     13094     13093     13095
     13094     13093     13096     13095     13093     13096     13097     13101     13102
     13097     13101     13103     13097     13101     13104     13098     13097     13099
     13098     13097     13100     13098     13097     13101     13099     13097     13100
     13099     13097     13101     13100     13097     13101     13101     13104     13105
     13101     13104     13106     13101     13104     13111     13102     13101     13103
     13102     13101     13104     13103     13101     13104     13104     13111     13107
     13105     13104     13106     13105     13104     13111     13106     13104     13111
     13107     13110     13112     13108     13107     13109     13108     13107     13110
     13108     13107     13111     13109     13107     13110     13109     13107     13111
     13110     13107     13111     13110     13112     13113     13110     13112     13114
     13110     13112     13115     13112     13115     13116     13112     13115     13117
     13112     13115     13123     13113     13112     13114     13113     13112     13115
     13114     13112     13115     13115     13117     13118     13115     13123     13124
     13115     13123     13125     13115     13123     13126     13116     13115     13117
     13116     13115     13123     13117     13115     13123     13117     13118     13119
     13117     13118     13120     13118     13120     13121     13118     13120     13122
     13118     13120     13132     13119     13118     13120     13120     13132     13133
     13120     13132     13134     13120     13132     13135     13121     13120     13122
     13121     13120     13132     13122     13120     13132     13123     13126     13127
     13124     13123     13125     13124     13123     13126     13125     13123     13126
     13126     13127     13128     13126     13127     13129     13127     13129     13130
     13127     13129     13131     13127     13129     13179     13128     13127     13129
     13129     13179     13180     13129     13179     13181     13129     13179     13182
     13130     13129     13131     13130     13129     13179     13131     13129     13179
     13132     13135     13136     13132     13135     13137     13132     13135     13138
     13133     13132     13134     13133     13132     13135     13134     13132     13135
     13135     13138     13139     13135     13138     13140     13135     13138     13141
     13136     13135     13137     13136     13135     13138     13137     13135     13138
     13138     13141     13142     13138     13141     13143     13138     13141     13144
     13139     13138     13140     13139     13138     13141     13140     13138     13141
     13141     13144     13145     13141     13144     13146     13141     13144     13147
     13142     13141     13143     13142     13141     13144     13143     13141     13144
     13144     13147     13148     13144     13147     13149     13144     13147     13150
     13145     13144     13146     13145     13144     13147     13146     13144     13147
     13147     13150     13151     13147     13150     13152     13148     13147     13149
     13148     13147     13150     13149     13147     13150     13150     13152     13153
     13150     13152     13154     13151     13150     13152     13152     13154     13155
     13152     13154     13156     13152     13154     13157     13153     13152     13154
     13154     13157     13158     13154     13157     13159     13154     13157     13160
     13155     13154     13156     13155     13154     13157     13156     13154     13157
     13157     13160     13161     13157     13160     13162     13157     13160     13163
     13158     13157     13159     13158     13157     13160     13159     13157     13160
     13160     13163     13164     13160     13163     13165     13160     13163     13166
     13161     13160     13162     13161     13160     13163     13162     13160     13163
     13163     13166     13167     13163     13166     13168     13163     13166     13169
     13164     13163     13165     13164     13163     13166     13165     13163     13166
     13166     13169     13170     13166     13169     13171     13166     13169     13172
     13167     13166     13168     13167     13166     13169     13168     13166     13169
     13169     13172     13173     13169     13172     13174     13169     13172     13175
     13170     13169     13171     13170     13169     13172     13171     13169     13172
     13172     13175     13176     13172     13175     13177     13172     13175     13178
     13173     13172     13174     13173     13172     13175     13174     13172     13175
     13176     13175     13177     13176     13175     13178     13177     13175     13178
     13179     13182     13183     13179     13182     13184     13179     13182     13185
     13180     13179     13181     13180     13179     13182     13181     13179     13182
     13182     13185     13186     13182     13185     13187     13182     13185     13188
     13183     13182     13184     13183     13182     13185     13184     13182     13185
     13185     13188     13189     13185     13188     13190     13185     13188     13191
     13186     13185     13187     13186     13185     13188     13187     13185     13188
     13188     13191     13192     13188     13191     13193     13188     13191     13194
     13189     13188     13190     13189     13188     13191     13190     13188     13191
     13191     13194     13195     13191     13194     13196     13191     13194     13197
     13192     13191     13193     13192     13191     13194     13193     13191     13194
     13194     13197     13198     13194     13197     13199     13195     13194     13196
     13195     13194     13197     13196     13194     13197     13197     13199     13200
     13197     13199     13201     13198     13197     13199     13199     13201     13202
     13199     13201     13203     13199     13201     13204     13200     13199     13201
     13201     13204     13205     13201     13204     13206     13201     13204     13207
     13202     13201     13203     13202     13201     13204     13203     13201     13204
     13204     13207     13208     13204     13207     13209     13204     13207     13210
     13205     13204     13206     13205     13204     13207     13206     13204     13207
     13207     13210     13211     13207     13210     13212     13207     13210     13213
     13208     13207     13209     13208     13207     13210     13209     13207     13210
     13210     13213     13214     13210     13213     13215     13210     13213     13216
     13211     13210     13212     13211     13210     13213     13212     13210     13213
     13213     13216     13217     13213     13216     13218     13213     13216     13219
     13214     13213     13215     13214     13213     13216     13215     13213     13216
     13216     13219     13220     13216     13219     13221     13216     13219     13222
     13217     13216     13218     13217     13216     13219     13218     13216     13219
     13219     13222     13223     13219     13222     13224     13219     13222     13225
     13220     13219     13221     13220     13219     13222     13221     13219     13222
     13223     13222     13224     13223     13222     13225     13224     13222     13225
     13226     13230     13231     13226     13230     13232     13226     13230     13233
     13227     13226     13228     13227     13226     13229     13227     13226     13230
     13228     13226     13229     13228     13226     13230     13229     13226     13230
     13230     13233     13234     13230     13233     13235     13230     13233     13240
     13231     13230     13232     13231     13230     13233     13232     13230     13233
     13233     13240     13236     13234     13233     13235     13234     13233     13240
     13235     13233     13240     13236     13239     13241     13237     13236     13238
     13237     13236     13239     13237     13236     13240     13238     13236     13239
     13238     13236     13240     13239     13236     13240     13239     13241     13242
     13239     13241     13243     13239     13241     13244     13241     13244     13245
     13241     13244     13246     13241     13244     13252     13242     13241     13243
     13242     13241     13244     13243     13241     13244     13244     13246     13247
     13244     13252     13253     13244     13252     13254     13244     13252     13255
     13245     13244     13246     13245     13244     13252     13246     13244     13252
     13246     13247     13248     13246     13247     13249     13247     13249     13250
     13247     13249     13251     13247     13249     13261     13248     13247     13249
     13249     13261     13262     13249     13261     13263     13249     13261     13264
     13250     13249     13251     13250     13249     13261     13251     13249     13261
     13252     13255     13256     13253     13252     13254     13253     13252     13255
     13254     13252     13255     13255     13256     13257     13255     13256     13258
     13256     13258     13259     13256     13258     13260     13256     13258     13308
     13257     13256     13258     13258     13308     13309     13258     13308     13310
     13258     13308     13311     13259     13258     13260     13259     13258     13308
     13260     13258     13308     13261     13264     13265     13261     13264     13266
     13261     13264     13267     13262     13261     13263     13262     13261     13264
     13263     13261     13264     13264     13267     13268     13264     13267     13269
     13264     13267     13270     13265     13264     13266     13265     13264     13267
     13266     13264     13267     13267     13270     13271     13267     13270     13272
     13267     13270     13273     13268     13267     13269     13268     13267     13270
     13269     13267     13270     13270     13273     13274     13270     13273     13275
     13270     13273     13276     13271     13270     13272     13271     13270     13273
     13272     13270     13273     13273     13276     13277     13273     13276     13278
     13273     13276     13279     13274     13273     13275     13274     13273     13276
     13275     13273     13276     13276     13279     13280     13276     13279     13281
     13277     13276     13278     13277     13276     13279     13278     13276     13279
     13279     13281     13282     13279     13281     13283     13280     13279     13281
     13281     13283     13284     13281     13283     13285     13281     13283     13286
     13282     13281     13283     13283     13286     13287     13283     13286     13288
     13283     13286     13289     13284     13283     13285     13284     13283     13286
     13285     13283     13286     13286     13289     13290     13286     13289     13291
     13286     13289     13292     13287     13286     13288     13287     13286     13289
     13288     13286     13289     13289     13292     13293     13289     13292     13294
     13289     13292     13295     13290     13289     13291     13290     13289     13292
     13291     13289     13292     13292     13295     13296     13292     13295     13297
     13292     13295     13298     13293     13292     13294     13293     13292     13295
     13294     13292     13295     13295     13298     13299     13295     13298     13300
     13295     13298     13301     13296     13295     13297     13296     13295     13298
     13297     13295     13298     13298     13301     13302     13298     13301     13303
     13298     13301     13304     13299     13298     13300     13299     13298     13301
     13300     13298     13301     13301     13304     13305     13301     13304     13306
     13301     13304     13307     13302     13301     13303     13302     13301     13304
     13303     13301     13304     13305     13304     13306     13305     13304     13307
     13306     13304     13307     13308     13311     13312     13308     13311     13313
     13308     13311     13314     13309     13308     13310     13309     13308     13311
     13310     13308     13311     13311     13314     13315     13311     13314     13316
     13311     13314     13317     13312     13311     13313     13312     13311     13314
     13313     13311     13314     13314     13317     13318     13314     13317     13319
     13314     13317     13320     13315     13314     13316     13315     13314     13317
     13316     13314     13317     13317     13320     13321     13317     13320     13322
     13317     13320     13323     13318     13317     13319     13318     13317     13320
     13319     13317     13320     13320     13323     13324     13320     13323     13325
     13320     13323     13326     13321     13320     13322     13321     13320     13323
     13322     13320     13323     13323     13326     13327     13323     13326     13328
     13324     13323     13325     13324     13323     13326     13325     13323     13326
     13326     13328     13329     13326     13328     13330     13327     13326     13328
     13328     13330     13331     13328     13330     13332     13328     13330     13333
     13329     13328     13330     13330     13333     13334     13330     13333     13335
     13330     13333     13336     13331     13330     13332     13331     13330     13333
     13332     13330     13333     13333     13336     13337     13333     13336     13338
     13333     13336     13339     13334     13333     13335     13334     13333     13336
     13335     13333     13336     13336     13339     13340     13336     13339     13341
     13336     13339     13342     13337     13336     13338     13337     13336     13339
     13338     13336     13339     13339     13342     13343     13339     13342     13344
     13339     13342     13345     13340     13339     13341     13340     13339     13342
     13341     13339     13342     13342     13345     13346     13342     13345     13347
     13342     13345     13348     13343     13342     13344     13343     13342     13345
     13344     13342     13345     13345     13348     13349     13345     13348     13350
     13345     13348     13351     13346     13345     13347     13346     13345     13348
     13347     13345     13348     13348     13351     13352     13348     13351     13353
     13348     13351     13354     13349     13348     13350     13349     13348     13351
     13350     13348     13351     13352     13351     13353     13352     13351     13354
     13353     13351     13354     13355     13356     13357     13355     13356     13358
     13355     13356     13359     13355     13360     13361     13355     13360     13362
     13355     13360     13363     13355     13364     13365     13355     13364     13366
     13355     13364     13367     13355     13368     13369     13355     13368     13370
     13355     13368     13371     13356     13355     13360     13356     13355     13364
     13356     13355     13368     13357     13356     13358     13357     13356     13359
     13358     13356     13359     13360     13355     13364     13360     13355     13368
     13361     13360     13362     13361     13360     13363     13362     13360     13363
     13364     13355     13368     13365     13364     13366     13365     13364     13367
     13366     13364     13367     13368     13371     13372     13368     13371     13373
     13368     13371     13378     13369     13368     13370     13369     13368     13371
     13370     13368     13371     13371     13378     13374     13372     13371     13373
     13372     13371     13378     13373     13371     13378     13374     13377     13379
     13375     13374     13376     13375     13374     13377     13375     13374     13378
     13376     13374     13377     13376     13374     13378     13377     13374     13378
     13377     13379     13380     13377     13379     13381     13377     13379     13384
     13379     13384     13382     13379     13384     13385     13379     13384     13386
     13380     13379     13381     13380     13379     13384     13381     13379     13384
     13382     13384     13385     13382     13384     13386     13382     13434     13435
     13382     13434     13436     13383     13382     13384     13383     13382     13434
     13384     13382     13434     13384     13386     13387     13384     13386     13388
     13384     13386     13390     13385     13384     13386     13386     13388     13389
     13386     13390     13391     13386     13390     13392     13387     13386     13388
     13387     13386     13390     13388     13386     13390     13390     13392     13393
     13390     13392     13394     13391     13390     13392     13392     13394     13395
     13392     13394     13396     13392     13394     13397     13393     13392     13394
     13394     13397     13398     13394     13397     13399     13394     13397     13400
     13395     13394     13396     13395     13394     13397     13396     13394     13397
     13397     13400     13401     13397     13400     13402     13397     13400     13403
     13398     13397     13399     13398     13397     13400     13399     13397     13400
     13400     13403     13404     13400     13403     13405     13400     13403     13406
     13401     13400     13402     13401     13400     13403     13402     13400     13403
     13403     13406     13407     13403     13406     13408     13403     13406     13409
     13404     13403     13405     13404     13403     13406     13405     13403     13406
     13406     13409     13410     13406     13409     13411     13406     13409     13412
     13407     13406     13408     13407     13406     13409     13408     13406     13409
     13409     13412     13413     13409     13412     13414     13409     13412     13415
     13410     13409     13411     13410     13409     13412     13411     13409     13412
     13412     13415     13416     13412     13415     13417     13412     13415     13418
     13413     13412     13414     13413     13412     13415     13414     13412     13415
     13415     13418     13419     13415     13418     13420     13415     13418     13421
     13416     13415     13417     13416     13415     13418     13417     13415     13418
     13418     13421     13422     13418     13421     13423     13418     13421     13424
     13419     13418     13420     13419     13418     13421     13420     13418     13421
     13421     13424     13425     13421     13424     13426     13421     13424     13427
     13422     13421     13423     13422     13421     13424     13423     13421     13424
     13424     13427     13428     13424     13427     13429     13424     13427     13430
     13425     13424     13426     13425     13424     13427     13426     13424     13427
     13427     13430     13431     13427     13430     13432     13427     13430     13433
     13428     13427     13429     13428     13427     13430     13429     13427     13430
     13431     13430     13432     13431     13430     13433     13432     13430     13433
     13434     13436     13437     13434     13436     13438     13434     13436     13439
     13435     13434     13436     13436     13439     13440     13436     13439     13441
     13436     13439     13442     13437     13436     13438     13437     13436     13439
     13438     13436     13439     13439     13442     13443     13439     13442     13444
     13439     13442     13445     13440     13439     13441     13440     13439     13442
     13441     13439     13442     13442     13445     13446     13442     13445     13447
     13442     13445     13448     13443     13442     13444     13443     13442     13445
     13444     13442     13445     13445     13448     13449     13445     13448     13450
     13445     13448     13451     13446     13445     13447     13446     13445     13448
     13447     13445     13448     13448     13451     13452     13448     13451     13453
     13448     13451     13454     13449     13448     13450     13449     13448     13451
     13450     13448     13451     13451     13454     13455     13451     13454     13456
     13451     13454     13457     13452     13451     13453     13452     13451     13454
     13453     13451     13454     13454     13457     13458     13454     13457     13459
     13454     13457     13460     13455     13454     13456     13455     13454     13457
     13456     13454     13457     13457     13460     13461     13457     13460     13462
     13457     13460     13463     13458     13457     13459     13458     13457     13460
     13459     13457     13460     13460     13463     13464     13460     13463     13465
     13460     13463     13466     13461     13460     13462     13461     13460     13463
     13462     13460     13463     13463     13466     13467     13463     13466     13468
     13463     13466     13469     13464     13463     13465     13464     13463     13466
     13465     13463     13466     13466     13469     13470     13466     13469     13471
     13466     13469     13472     13467     13466     13468     13467     13466     13469
     13468     13466     13469     13469     13472     13473     13469     13472     13474
     13469     13472     13475     13470     13469     13471     13470     13469     13472
     13471     13469     13472     13472     13475     13476     13472     13475     13477
     13472     13475     13478     13473     13472     13474     13473     13472     13475
     13474     13472     13475     13475     13478     13479     13475     13478     13480
     13475     13478     13481     13476     13475     13477     13476     13475     13478
     13477     13475     13478     13478     13481     13482     13478     13481     13483
     13478     13481     13484     13479     13478     13480     13479     13478     13481
     13480     13478     13481     13481     13484     13485     13481     13484     13486
     13481     13484     13487     13482     13481     13483     13482     13481     13484
     13483     13481     13484     13484     13487     13488     13484     13487     13489
     13484     13487     13490     13485     13484     13486     13485     13484     13487
     13486     13484     13487     13487     13490     13491     13487     13490     13492
     13487     13490     13493     13488     13487     13489     13488     13487     13490
     13489     13487     13490     13490     13493     13494     13490     13493     13495
     13490     13493     13496     13491     13490     13492     13491     13490     13493
     13492     13490     13493     13493     13496     13497     13493     13496     13498
     13493     13496     13499     13494     13493     13495     13494     13493     13496
     13495     13493     13496     13496     13499     13500     13496     13499     13501
     13496     13499     13502     13497     13496     13498     13497     13496     13499
     13498     13496     13499     13500     13499     13501     13500     13499     13502
     13501     13499     13502     13503     13505     13506     13503     13507     13508
     13503     13507     13509     13503     13507     13510     13503     13549     13546
     13503     13549     13550     13503     13549     13551     13504     13503     13505
     13504     13503     13507     13504     13503     13549     13505     13503     13507
     13505     13503     13549     13507     13503     13549     13507     13510     13511
     13507     13510     13541     13508     13507     13509     13508     13507     13510
     13509     13507     13510     13510     13511     13512     13510     13511     13513
     13510     13541     13539     13510     13541     13542     13510     13541     13546
     13511     13510     13541     13511     13513     13514     13511     13513     13515
     13511     13513     13516     13512     13511     13513     13513     13516     13517
     13513     13516     13518     13513     13516     13539     13514     13513     13515
     13514     13513     13516     13515     13513     13516     13516     13518     13519
     13516     13518     13520     13516     13518     13528     13516     13539     13536
     13516     13539     13540     13516     13539     13541     13517     13516     13518
     13517     13516     13539     13518     13516     13539     13518     13520     13521
     13518     13520     13522     13518     13520     13523     13518     13528     13526
     13518     13528     13529     13518     13528     13533     13519     13518     13520
     13519     13518     13528     13520     13518     13528     13520     13523     13524
     13520     13523     13525     13520     13523     13526     13521     13520     13522
     13521     13520     13523     13522     13520     13523     13523     13526     13527
     13523     13526     13528     13523     13526     13552     13524     13523     13525
     13524     13523     13526     13525     13523     13526     13526     13528     13529
     13526     13528     13533     13526     13552     13553     13526     13552     13554
     13526     13552     13558     13527     13526     13528     13527     13526     13552
     13528     13526     13552     13528     13529     13530     13528     13529     13531
     13528     13529     13532     13528     13533     13534     13528     13533     13535
     13528     13533     13536     13529     13528     13533     13530     13529     13531
     13530     13529     13532     13531     13529     13532     13533     13536     13537
     13533     13536     13538     13533     13536     13539     13534     13533     13535
     13534     13533     13536     13535     13533     13536     13536     13539     13540
     13536     13539     13541     13537     13536     13538     13537     13536     13539
     13538     13536     13539     13539     13541     13542     13539     13541     13546
     13540     13539     13541     13541     13542     13543     13541     13542     13544
     13541     13542     13545     13541     13546     13547     13541     13546     13548
     13541     13546     13549     13542     13541     13546     13543     13542     13544
     13543     13542     13545     13544     13542     13545     13546     13549     13550
     13546     13549     13551     13547     13546     13548     13547     13546     13549
     13548     13546     13549     13550     13549     13551     13552     13554     13555
     13552     13554     13556     13552     13554     13557     13552     13558     13559
     13552     13558     13560     13552     13558     13561     13553     13552     13554
     13553     13552     13558     13554     13552     13558     13555     13554     13556
     13555     13554     13557     13556     13554     13557     13558     13561     13562
     13558     13561     13563     13558     13561     13564     13559     13558     13560
     13559     13558     13561     13560     13558     13561     13561     13564     13565
     13561     13564     13566     13561     13564     13567     13562     13561     13563
     13562     13561     13564     13563     13561     13564     13564     13567     13568
     13564     13567     13569     13564     13567     13573     13565     13564     13566
     13565     13564     13567     13566     13564     13567     13567     13569     13570
     13567     13569     13571     13567     13569     13572     13567     13573     13574
     13567     13573     13575     13567     13573     13576     13568     13567     13569
     13568     13567     13573     13569     13567     13573     13570     13569     13571
     13570     13569     13572     13571     13569     13572     13574     13573     13575
     13574     13573     13576     13575     13573     13576     13577     13579     13580
     13577     13581     13582     13577     13581     13583     13577     13581     13584
     13577     13623     13620     13577     13623     13624     13577     13623     13625
     13578     13577     13579     13578     13577     13581     13578     13577     13623
     13579     13577     13581     13579     13577     13623     13581     13577     13623
     13581     13584     13585     13581     13584     13615     13582     13581     13583
     13582     13581     13584     13583     13581     13584     13584     13585     13586
     13584     13585     13587     13584     13615     13613     13584     13615     13616
     13584     13615     13620     13585     13584     13615     13585     13587     13588
     13585     13587     13589     13585     13587     13590     13586     13585     13587
     13587     13590     13591     13587     13590     13592     13587     13590     13613
     13588     13587     13589     13588     13587     13590     13589     13587     13590
     13590     13592     13593     13590     13592     13594     13590     13592     13602
     13590     13613     13610     13590     13613     13614     13590     13613     13615
     13591     13590     13592     13591     13590     13613     13592     13590     13613
     13592     13594     13595     13592     13594     13596     13592     13594     13597
     13592     13602     13600     13592     13602     13603     13592     13602     13607
     13593     13592     13594     13593     13592     13602     13594     13592     13602
     13594     13597     13598     13594     13597     13599     13594     13597     13600
     13595     13594     13596     13595     13594     13597     13596     13594     13597
     13597     13600     13601     13597     13600     13602     13597     13600     13626
     13598     13597     13599     13598     13597     13600     13599     13597     13600
     13600     13602     13603     13600     13602     13607     13600     13626     13627
     13600     13626     13628     13600     13626     13632     13601     13600     13602
     13601     13600     13626     13602     13600     13626     13602     13603     13604
     13602     13603     13605     13602     13603     13606     13602     13607     13608
     13602     13607     13609     13602     13607     13610     13603     13602     13607
     13604     13603     13605     13604     13603     13606     13605     13603     13606
     13607     13610     13611     13607     13610     13612     13607     13610     13613
     13608     13607     13609     13608     13607     13610     13609     13607     13610
     13610     13613     13614     13610     13613     13615     13611     13610     13612
     13611     13610     13613     13612     13610     13613     13613     13615     13616
     13613     13615     13620     13614     13613     13615     13615     13616     13617
     13615     13616     13618     13615     13616     13619     13615     13620     13621
     13615     13620     13622     13615     13620     13623     13616     13615     13620
     13617     13616     13618     13617     13616     13619     13618     13616     13619
     13620     13623     13624     13620     13623     13625     13621     13620     13622
     13621     13620     13623     13622     13620     13623     13624     13623     13625
     13626     13628     13629     13626     13628     13630     13626     13628     13631
     13626     13632     13633     13626     13632     13634     13626     13632     13635
     13627     13626     13628     13627     13626     13632     13628     13626     13632
     13629     13628     13630     13629     13628     13631     13630     13628     13631
     13632     13635     13636     13632     13635     13637     13632     13635     13638
     13633     13632     13634     13633     13632     13635     13634     13632     13635
     13635     13638     13639     13635     13638     13640     13635     13638     13641
     13636     13635     13637     13636     13635     13638     13637     13635     13638
     13638     13641     13642     13638     13641     13643     13638     13641     13647
     13639     13638     13640     13639     13638     13641     13640     13638     13641
     13641     13643     13644     13641     13643     13645     13641     13643     13646
     13641     13647     13648     13641     13647     13649     13641     13647     13650
     13642     13641     13643     13642     13641     13647     13643     13641     13647
     13644     13643     13645     13644     13643     13646     13645     13643     13646
     13648     13647     13649     13648     13647     13650     13649     13647     13650
     13651     13653     13654     13651     13655     13656     13651     13655     13657
     13651     13655     13658     13651     13697     13694     13651     13697     13698
     13651     13697     13699     13652     13651     13653     13652     13651     13655
     13652     13651     13697     13653     13651     13655     13653     13651     13697
     13655     13651     13697     13655     13658     13659     13655     13658     13689
     13656     13655     13657     13656     13655     13658     13657     13655     13658
     13658     13659     13660     13658     13659     13661     13658     13689     13687
     13658     13689     13690     13658     13689     13694     13659     13658     13689
     13659     13661     13662     13659     13661     13663     13659     13661     13664
     13660     13659     13661     13661     13664     13665     13661     13664     13666
     13661     13664     13687     13662     13661     13663     13662     13661     13664
     13663     13661     13664     13664     13666     13667     13664     13666     13668
     13664     13666     13676     13664     13687     13684     13664     13687     13688
     13664     13687     13689     13665     13664     13666     13665     13664     13687
     13666     13664     13687     13666     13668     13669     13666     13668     13670
     13666     13668     13671     13666     13676     13674     13666     13676     13677
     13666     13676     13681     13667     13666     13668     13667     13666     13676
     13668     13666     13676     13668     13671     13672     13668     13671     13673
     13668     13671     13674     13669     13668     13670     13669     13668     13671
     13670     13668     13671     13671     13674     13675     13671     13674     13676
     13671     13674     13700     13672     13671     13673     13672     13671     13674
     13673     13671     13674     13674     13676     13677     13674     13676     13681
     13674     13700     13701     13674     13700     13702     13674     13700     13706
     13675     13674     13676     13675     13674     13700     13676     13674     13700
     13676     13677     13678     13676     13677     13679     13676     13677     13680
     13676     13681     13682     13676     13681     13683     13676     13681     13684
     13677     13676     13681     13678     13677     13679     13678     13677     13680
     13679     13677     13680     13681     13684     13685     13681     13684     13686
     13681     13684     13687     13682     13681     13683     13682     13681     13684
     13683     13681     13684     13684     13687     13688     13684     13687     13689
     13685     13684     13686     13685     13684     13687     13686     13684     13687
     13687     13689     13690     13687     13689     13694     13688     13687     13689
     13689     13690     13691     13689     13690     13692     13689     13690     13693
     13689     13694     13695     13689     13694     13696     13689     13694     13697
     13690     13689     13694     13691     13690     13692     13691     13690     13693
     13692     13690     13693     13694     13697     13698     13694     13697     13699
     13695     13694     13696     13695     13694     13697     13696     13694     13697
     13698     13697     13699     13700     13702     13703     13700     13702     13704
     13700     13702     13705     13700     13706     13707     13700     13706     13708
     13700     13706     13709     13701     13700     13702     13701     13700     13706
     13702     13700     13706     13703     13702     13704     13703     13702     13705
     13704     13702     13705     13706     13709     13710     13706     13709     13711
     13706     13709     13712     13707     13706     13708     13707     13706     13709
     13708     13706     13709     13709     13712     13713     13709     13712     13714
     13709     13712     13715     13710     13709     13711     13710     13709     13712
     13711     13709     13712     13712     13715     13716     13712     13715     13717
     13712     13715     13721     13713     13712     13714     13713     13712     13715
     13714     13712     13715     13715     13717     13718     13715     13717     13719
     13715     13717     13720     13715     13721     13722     13715     13721     13723
     13715     13721     13724     13716     13715     13717     13716     13715     13721
     13717     13715     13721     13718     13717     13719     13718     13717     13720
     13719     13717     13720     13722     13721     13723     13722     13721     13724
     13723     13721     13724     13725     13726     13727     13725     13726     13728
     13725     13726     13729     13725     13730     13731     13725     13730     13732
     13725     13730     13733     13725     13734     13735     13725     13734     13736
     13725     13734     13737     13725     13738     13739     13725     13738     13740
     13725     13738     13741     13726     13725     13730     13726     13725     13734
     13726     13725     13738     13727     13726     13728     13727     13726     13729
     13728     13726     13729     13730     13725     13734     13730     13725     13738
     13731     13730     13732     13731     13730     13733     13732     13730     13733
     13734     13725     13738     13735     13734     13736     13735     13734     13737
     13736     13734     13737     13738     13741     13742     13738     13741     13743
     13738     13741     13748     13739     13738     13740     13739     13738     13741
     13740     13738     13741     13741     13748     13744     13742     13741     13743
     13742     13741     13748     13743     13741     13748     13744     13747     13749
     13745     13744     13746     13745     13744     13747     13745     13744     13748
     13746     13744     13747     13746     13744     13748     13747     13744     13748
     13747     13749     13750     13747     13749     13751     13747     13749     13754
     13749     13754     13752     13749     13754     13755     13749     13754     13756
     13750     13749     13751     13750     13749     13754     13751     13749     13754
     13752     13754     13755     13752     13754     13756     13752     13804     13805
     13752     13804     13806     13753     13752     13754     13753     13752     13804
     13754     13752     13804     13754     13756     13757     13754     13756     13758
     13754     13756     13760     13755     13754     13756     13756     13758     13759
     13756     13760     13761     13756     13760     13762     13757     13756     13758
     13757     13756     13760     13758     13756     13760     13760     13762     13763
     13760     13762     13764     13761     13760     13762     13762     13764     13765
     13762     13764     13766     13762     13764     13767     13763     13762     13764
     13764     13767     13768     13764     13767     13769     13764     13767     13770
     13765     13764     13766     13765     13764     13767     13766     13764     13767
     13767     13770     13771     13767     13770     13772     13767     13770     13773
     13768     13767     13769     13768     13767     13770     13769     13767     13770
     13770     13773     13774     13770     13773     13775     13770     13773     13776
     13771     13770     13772     13771     13770     13773     13772     13770     13773
     13773     13776     13777     13773     13776     13778     13773     13776     13779
     13774     13773     13775     13774     13773     13776     13775     13773     13776
     13776     13779     13780     13776     13779     13781     13776     13779     13782
     13777     13776     13778     13777     13776     13779     13778     13776     13779
     13779     13782     13783     13779     13782     13784     13779     13782     13785
     13780     13779     13781     13780     13779     13782     13781     13779     13782
     13782     13785     13786     13782     13785     13787     13782     13785     13788
     13783     13782     13784     13783     13782     13785     13784     13782     13785
     13785     13788     13789     13785     13788     13790     13785     13788     13791
     13786     13785     13787     13786     13785     13788     13787     13785     13788
     13788     13791     13792     13788     13791     13793     13788     13791     13794
     13789     13788     13790     13789     13788     13791     13790     13788     13791
     13791     13794     13795     13791     13794     13796     13791     13794     13797
     13792     13791     13793     13792     13791     13794     13793     13791     13794
     13794     13797     13798     13794     13797     13799     13794     13797     13800
     13795     13794     13796     13795     13794     13797     13796     13794     13797
     13797     13800     13801     13797     13800     13802     13797     13800     13803
     13798     13797     13799     13798     13797     13800     13799     13797     13800
     13801     13800     13802     13801     13800     13803     13802     13800     13803
     13804     13806     13807     13804     13806     13808     13804     13806     13809
     13805     13804     13806     13806     13809     13810     13806     13809     13811
     13806     13809     13812     13807     13806     13808     13807     13806     13809
     13808     13806     13809     13809     13812     13813     13809     13812     13814
     13809     13812     13815     13810     13809     13811     13810     13809     13812
     13811     13809     13812     13812     13815     13816     13812     13815     13817
     13812     13815     13818     13813     13812     13814     13813     13812     13815
     13814     13812     13815     13815     13818     13819     13815     13818     13820
     13815     13818     13821     13816     13815     13817     13816     13815     13818
     13817     13815     13818     13818     13821     13822     13818     13821     13823
     13818     13821     13824     13819     13818     13820     13819     13818     13821
     13820     13818     13821     13821     13824     13825     13821     13824     13826
     13821     13824     13827     13822     13821     13823     13822     13821     13824
     13823     13821     13824     13824     13827     13828     13824     13827     13829
     13824     13827     13830     13825     13824     13826     13825     13824     13827
     13826     13824     13827     13827     13830     13831     13827     13830     13832
     13827     13830     13833     13828     13827     13829     13828     13827     13830
     13829     13827     13830     13830     13833     13834     13830     13833     13835
     13830     13833     13836     13831     13830     13832     13831     13830     13833
     13832     13830     13833     13833     13836     13837     13833     13836     13838
     13833     13836     13839     13834     13833     13835     13834     13833     13836
     13835     13833     13836     13836     13839     13840     13836     13839     13841
     13836     13839     13842     13837     13836     13838     13837     13836     13839
     13838     13836     13839     13839     13842     13843     13839     13842     13844
     13839     13842     13845     13840     13839     13841     13840     13839     13842
     13841     13839     13842     13842     13845     13846     13842     13845     13847
     13842     13845     13848     13843     13842     13844     13843     13842     13845
     13844     13842     13845     13845     13848     13849     13845     13848     13850
     13845     13848     13851     13846     13845     13847     13846     13845     13848
     13847     13845     13848     13848     13851     13852     13848     13851     13853
     13848     13851     13854     13849     13848     13850     13849     13848     13851
     13850     13848     13851     13851     13854     13855     13851     13854     13856
     13851     13854     13857     13852     13851     13853     13852     13851     13854
     13853     13851     13854     13854     13857     13858     13854     13857     13859
     13854     13857     13860     13855     13854     13856     13855     13854     13857
     13856     13854     13857     13857     13860     13861     13857     13860     13862
     13857     13860     13863     13858     13857     13859     13858     13857     13860
     13859     13857     13860     13860     13863     13864     13860     13863     13865
     13860     13863     13866     13861     13860     13862     13861     13860     13863
     13862     13860     13863     13863     13866     13867     13863     13866     13868
     13863     13866     13869     13864     13863     13865     13864     13863     13866
     13865     13863     13866     13866     13869     13870     13866     13869     13871
     13866     13869     13872     13867     13866     13868     13867     13866     13869
     13868     13866     13869     13870     13869     13871     13870     13869     13872
     13871     13869     13872     13873     13877     13878     13873     13877     13879
     13873     13877     13880     13874     13873     13875     13874     13873     13876
     13874     13873     13877     13875     13873     13876     13875     13873     13877
     13876     13873     13877     13877     13880     13881     13877     13880     13882
     13877     13880     13887     13878     13877     13879     13878     13877     13880
     13879     13877     13880     13880     13887     13883     13881     13880     13882
     13881     13880     13887     13882     13880     13887     13883     13886     13888
     13884     13883     13885     13884     13883     13886     13884     13883     13887
     13885     13883     13886     13885     13883     13887     13886     13883     13887
     13886     13888     13889     13886     13888     13890     13886     13888     13891
     13888     13891     13892     13888     13891     13893     13888     13891     13899
     13889     13888     13890     13889     13888     13891     13890     13888     13891
     13891     13893     13894     13891     13899     13900     13891     13899     13901
     13891     13899     13902     13892     13891     13893     13892     13891     13899
     13893     13891     13899     13893     13894     13895     13893     13894     13896
     13894     13896     13897     13894     13896     13898     13894     13896     13908
     13895     13894     13896     13896     13908     13909     13896     13908     13910
     13896     13908     13911     13897     13896     13898     13897     13896     13908
     13898     13896     13908     13899     13902     13903     13900     13899     13901
     13900     13899     13902     13901     13899     13902     13902     13903     13904
     13902     13903     13905     13903     13905     13906     13903     13905     13907
     13903     13905     13955     13904     13903     13905     13905     13955     13956
     13905     13955     13957     13905     13955     13958     13906     13905     13907
     13906     13905     13955     13907     13905     13955     13908     13911     13912
     13908     13911     13913     13908     13911     13914     13909     13908     13910
     13909     13908     13911     13910     13908     13911     13911     13914     13915
     13911     13914     13916     13911     13914     13917     13912     13911     13913
     13912     13911     13914     13913     13911     13914     13914     13917     13918
     13914     13917     13919     13914     13917     13920     13915     13914     13916
     13915     13914     13917     13916     13914     13917     13917     13920     13921
     13917     13920     13922     13917     13920     13923     13918     13917     13919
     13918     13917     13920     13919     13917     13920     13920     13923     13924
     13920     13923     13925     13920     13923     13926     13921     13920     13922
     13921     13920     13923     13922     13920     13923     13923     13926     13927
     13923     13926     13928     13924     13923     13925     13924     13923     13926
     13925     13923     13926     13926     13928     13929     13926     13928     13930
     13927     13926     13928     13928     13930     13931     13928     13930     13932
     13928     13930     13933     13929     13928     13930     13930     13933     13934
     13930     13933     13935     13930     13933     13936     13931     13930     13932
     13931     13930     13933     13932     13930     13933     13933     13936     13937
     13933     13936     13938     13933     13936     13939     13934     13933     13935
     13934     13933     13936     13935     13933     13936     13936     13939     13940
     13936     13939     13941     13936     13939     13942     13937     13936     13938
     13937     13936     13939     13938     13936     13939     13939     13942     13943
     13939     13942     13944     13939     13942     13945     13940     13939     13941
     13940     13939     13942     13941     13939     13942     13942     13945     13946
     13942     13945     13947     13942     13945     13948     13943     13942     13944
     13943     13942     13945     13944     13942     13945     13945     13948     13949
     13945     13948     13950     13945     13948     13951     13946     13945     13947
     13946     13945     13948     13947     13945     13948     13948     13951     13952
     13948     13951     13953     13948     13951     13954     13949     13948     13950
     13949     13948     13951     13950     13948     13951     13952     13951     13953
     13952     13951     13954     13953     13951     13954     13955     13958     13959
     13955     13958     13960     13955     13958     13961     13956     13955     13957
     13956     13955     13958     13957     13955     13958     13958     13961     13962
     13958     13961     13963     13958     13961     13964     13959     13958     13960
     13959     13958     13961     13960     13958     13961     13961     13964     13965
     13961     13964     13966     13961     13964     13967     13962     13961     13963
     13962     13961     13964     13963     13961     13964     13964     13967     13968
     13964     13967     13969     13964     13967     13970     13965     13964     13966
     13965     13964     13967     13966     13964     13967     13967     13970     13971
     13967     13970     13972     13967     13970     13973     13968     13967     13969
     13968     13967     13970     13969     13967     13970     13970     13973     13974
     13970     13973     13975     13971     13970     13972     13971     13970     13973
     13972     13970     13973     13973     13975     13976     13973     13975     13977
     13974     13973     13975     13975     13977     13978     13975     13977     13979
     13975     13977     13980     13976     13975     13977     13977     13980     13981
     13977     13980     13982     13977     13980     13983     13978     13977     13979
     13978     13977     13980     13979     13977     13980     13980     13983     13984
     13980     13983     13985     13980     13983     13986     13981     13980     13982
     13981     13980     13983     13982     13980     13983     13983     13986     13987
     13983     13986     13988     13983     13986     13989     13984     13983     13985
     13984     13983     13986     13985     13983     13986     13986     13989     13990
     13986     13989     13991     13986     13989     13992     13987     13986     13988
     13987     13986     13989     13988     13986     13989     13989     13992     13993
     13989     13992     13994     13989     13992     13995     13990     13989     13991
     13990     13989     13992     13991     13989     13992     13992     13995     13996
     13992     13995     13997     13992     13995     13998     13993     13992     13994
     13993     13992     13995     13994     13992     13995     13995     13998     13999
     13995     13998     14000     13995     13998     14001     13996     13995     13997
     13996     13995     13998     13997     13995     13998     13999     13998     14000
     13999     13998     14001     14000     13998     14001     14002     14004     14005
     14002     14006     14007     14002     14006     14008     14002     14006     14009
     14002     14048     14045     14002     14048     14049     14002     14048     14050
     14003     14002     14004     14003     14002     14006     14003     14002     14048
     14004     14002     14006     14004     14002     14048     14006     14002     14048
     14006     14009     14010     14006     14009     14040     14007     14006     14008
     14007     14006     14009     14008     14006     14009     14009     14010     14011
     14009     14010     14012     14009     14040     14038     14009     14040     14041
     14009     14040     14045     14010     14009     14040     14010     14012     14013
     14010     14012     14014     14010     14012     14015     14011     14010     14012
     14012     14015     14016     14012     14015     14017     14012     14015     14038
     14013     14012     14014     14013     14012     14015     14014     14012     14015
     14015     14017     14018     14015     14017     14019     14015     14017     14027
     14015     14038     14035     14015     14038     14039     14015     14038     14040
     14016     14015     14017     14016     14015     14038     14017     14015     14038
     14017     14019     14020     14017     14019     14021     14017     14019     14022
     14017     14027     14025     14017     14027     14028     14017     14027     14032
     14018     14017     14019     14018     14017     14027     14019     14017     14027
     14019     14022     14023     14019     14022     14024     14019     14022     14025
     14020     14019     14021     14020     14019     14022     14021     14019     14022
     14022     14025     14026     14022     14025     14027     14022     14025     14051
     14023     14022     14024     14023     14022     14025     14024     14022     14025
     14025     14027     14028     14025     14027     14032     14025     14051     14052
     14025     14051     14053     14025     14051     14057     14026     14025     14027
     14026     14025     14051     14027     14025     14051     14027     14028     14029
     14027     14028     14030     14027     14028     14031     14027     14032     14033
     14027     14032     14034     14027     14032     14035     14028     14027     14032
     14029     14028     14030     14029     14028     14031     14030     14028     14031
     14032     14035     14036     14032     14035     14037     14032     14035     14038
     14033     14032     14034     14033     14032     14035     14034     14032     14035
     14035     14038     14039     14035     14038     14040     14036     14035     14037
     14036     14035     14038     14037     14035     14038     14038     14040     14041
     14038     14040     14045     14039     14038     14040     14040     14041     14042
     14040     14041     14043     14040     14041     14044     14040     14045     14046
     14040     14045     14047     14040     14045     14048     14041     14040     14045
     14042     14041     14043     14042     14041     14044     14043     14041     14044
     14045     14048     14049     14045     14048     14050     14046     14045     14047
     14046     14045     14048     14047     14045     14048     14049     14048     14050
     14051     14053     14054     14051     14053     14055     14051     14053     14056
     14051     14057     14058     14051     14057     14059     14051     14057     14060
     14052     14051     14053     14052     14051     14057     14053     14051     14057
     14054     14053     14055     14054     14053     14056     14055     14053     14056
     14057     14060     14061     14057     14060     14062     14057     14060     14063
     14058     14057     14059     14058     14057     14060     14059     14057     14060
     14060     14063     14064     14060     14063     14065     14060     14063     14066
     14061     14060     14062     14061     14060     14063     14062     14060     14063
     14063     14066     14067     14063     14066     14068     14063     14066     14072
     14064     14063     14065     14064     14063     14066     14065     14063     14066
     14066     14068     14069     14066     14068     14070     14066     14068     14071
     14066     14072     14073     14066     14072     14074     14066     14072     14075
     14067     14066     14068     14067     14066     14072     14068     14066     14072
     14069     14068     14070     14069     14068     14071     14070     14068     14071
     14073     14072     14074     14073     14072     14075     14074     14072     14075
     14076     14080     14081     14076     14080     14082     14076     14080     14083
     14077     14076     14078     14077     14076     14079     14077     14076     14080
     14078     14076     14079     14078     14076     14080     14079     14076     14080
     14080     14083     14084     14080     14083     14085     14080     14083     14090
     14081     14080     14082     14081     14080     14083     14082     14080     14083
     14083     14090     14086     14084     14083     14085     14084     14083     14090
     14085     14083     14090     14086     14089     14091     14087     14086     14088
     14087     14086     14089     14087     14086     14090     14088     14086     14089
     14088     14086     14090     14089     14086     14090     14089     14091     14092
     14089     14091     14093     14089     14091     14094     14091     14094     14095
     14091     14094     14096     14091     14094     14102     14092     14091     14093
     14092     14091     14094     14093     14091     14094     14094     14096     14097
     14094     14102     14103     14094     14102     14104     14094     14102     14105
     14095     14094     14096     14095     14094     14102     14096     14094     14102
     14096     14097     14098     14096     14097     14099     14097     14099     14100
     14097     14099     14101     14097     14099     14111     14098     14097     14099
     14099     14111     14112     14099     14111     14113     14099     14111     14114
     14100     14099     14101     14100     14099     14111     14101     14099     14111
     14102     14105     14106     14103     14102     14104     14103     14102     14105
     14104     14102     14105     14105     14106     14107     14105     14106     14108
     14106     14108     14109     14106     14108     14110     14106     14108     14158
     14107     14106     14108     14108     14158     14159     14108     14158     14160
     14108     14158     14161     14109     14108     14110     14109     14108     14158
     14110     14108     14158     14111     14114     14115     14111     14114     14116
     14111     14114     14117     14112     14111     14113     14112     14111     14114
     14113     14111     14114     14114     14117     14118     14114     14117     14119
     14114     14117     14120     14115     14114     14116     14115     14114     14117
     14116     14114     14117     14117     14120     14121     14117     14120     14122
     14117     14120     14123     14118     14117     14119     14118     14117     14120
     14119     14117     14120     14120     14123     14124     14120     14123     14125
     14120     14123     14126     14121     14120     14122     14121     14120     14123
     14122     14120     14123     14123     14126     14127     14123     14126     14128
     14123     14126     14129     14124     14123     14125     14124     14123     14126
     14125     14123     14126     14126     14129     14130     14126     14129     14131
     14127     14126     14128     14127     14126     14129     14128     14126     14129
     14129     14131     14132     14129     14131     14133     14130     14129     14131
     14131     14133     14134     14131     14133     14135     14131     14133     14136
     14132     14131     14133     14133     14136     14137     14133     14136     14138
     14133     14136     14139     14134     14133     14135     14134     14133     14136
     14135     14133     14136     14136     14139     14140     14136     14139     14141
     14136     14139     14142     14137     14136     14138     14137     14136     14139
     14138     14136     14139     14139     14142     14143     14139     14142     14144
     14139     14142     14145     14140     14139     14141     14140     14139     14142
     14141     14139     14142     14142     14145     14146     14142     14145     14147
     14142     14145     14148     14143     14142     14144     14143     14142     14145
     14144     14142     14145     14145     14148     14149     14145     14148     14150
     14145     14148     14151     14146     14145     14147     14146     14145     14148
     14147     14145     14148     14148     14151     14152     14148     14151     14153
     14148     14151     14154     14149     14148     14150     14149     14148     14151
     14150     14148     14151     14151     14154     14155     14151     14154     14156
     14151     14154     14157     14152     14151     14153     14152     14151     14154
     14153     14151     14154     14155     14154     14156     14155     14154     14157
     14156     14154     14157     14158     14161     14162     14158     14161     14163
     14158     14161     14164     14159     14158     14160     14159     14158     14161
     14160     14158     14161     14161     14164     14165     14161     14164     14166
     14161     14164     14167     14162     14161     14163     14162     14161     14164
     14163     14161     14164     14164     14167     14168     14164     14167     14169
     14164     14167     14170     14165     14164     14166     14165     14164     14167
     14166     14164     14167     14167     14170     14171     14167     14170     14172
     14167     14170     14173     14168     14167     14169     14168     14167     14170
     14169     14167     14170     14170     14173     14174     14170     14173     14175
     14170     14173     14176     14171     14170     14172     14171     14170     14173
     14172     14170     14173     14173     14176     14177     14173     14176     14178
     14174     14173     14175     14174     14173     14176     14175     14173     14176
     14176     14178     14179     14176     14178     14180     14177     14176     14178
     14178     14180     14181     14178     14180     14182     14178     14180     14183
     14179     14178     14180     14180     14183     14184     14180     14183     14185
     14180     14183     14186     14181     14180     14182     14181     14180     14183
     14182     14180     14183     14183     14186     14187     14183     14186     14188
     14183     14186     14189     14184     14183     14185     14184     14183     14186
     14185     14183     14186     14186     14189     14190     14186     14189     14191
     14186     14189     14192     14187     14186     14188     14187     14186     14189
     14188     14186     14189     14189     14192     14193     14189     14192     14194
     14189     14192     14195     14190     14189     14191     14190     14189     14192
     14191     14189     14192     14192     14195     14196     14192     14195     14197
     14192     14195     14198     14193     14192     14194     14193     14192     14195
     14194     14192     14195     14195     14198     14199     14195     14198     14200
     14195     14198     14201     14196     14195     14197     14196     14195     14198
     14197     14195     14198     14198     14201     14202     14198     14201     14203
     14198     14201     14204     14199     14198     14200     14199     14198     14201
     14200     14198     14201     14202     14201     14203     14202     14201     14204
     14203     14201     14204     14205     14207     14208     14205     14209     14210
     14205     14209     14211     14205     14209     14212     14205     14251     14248
     14205     14251     14252     14205     14251     14253     14206     14205     14207
     14206     14205     14209     14206     14205     14251     14207     14205     14209
     14207     14205     14251     14209     14205     14251     14209     14212     14213
     14209     14212     14243     14210     14209     14211     14210     14209     14212
     14211     14209     14212     14212     14213     14214     14212     14213     14215
     14212     14243     14241     14212     14243     14244     14212     14243     14248
     14213     14212     14243     14213     14215     14216     14213     14215     14217
     14213     14215     14218     14214     14213     14215     14215     14218     14219
     14215     14218     14220     14215     14218     14241     14216     14215     14217
     14216     14215     14218     14217     14215     14218     14218     14220     14221
     14218     14220     14222     14218     14220     14230     14218     14241     14238
     14218     14241     14242     14218     14241     14243     14219     14218     14220
     14219     14218     14241     14220     14218     14241     14220     14222     14223
     14220     14222     14224     14220     14222     14225     14220     14230     14228
     14220     14230     14231     14220     14230     14235     14221     14220     14222
     14221     14220     14230     14222     14220     14230     14222     14225     14226
     14222     14225     14227     14222     14225     14228     14223     14222     14224
     14223     14222     14225     14224     14222     14225     14225     14228     14229
     14225     14228     14230     14225     14228     14254     14226     14225     14227
     14226     14225     14228     14227     14225     14228     14228     14230     14231
     14228     14230     14235     14228     14254     14255     14228     14254     14256
     14228     14254     14260     14229     14228     14230     14229     14228     14254
     14230     14228     14254     14230     14231     14232     14230     14231     14233
     14230     14231     14234     14230     14235     14236     14230     14235     14237
     14230     14235     14238     14231     14230     14235     14232     14231     14233
     14232     14231     14234     14233     14231     14234     14235     14238     14239
     14235     14238     14240     14235     14238     14241     14236     14235     14237
     14236     14235     14238     14237     14235     14238     14238     14241     14242
     14238     14241     14243     14239     14238     14240     14239     14238     14241
     14240     14238     14241     14241     14243     14244     14241     14243     14248
     14242     14241     14243     14243     14244     14245     14243     14244     14246
     14243     14244     14247     14243     14248     14249     14243     14248     14250
     14243     14248     14251     14244     14243     14248     14245     14244     14246
     14245     14244     14247     14246     14244     14247     14248     14251     14252
     14248     14251     14253     14249     14248     14250     14249     14248     14251
     14250     14248     14251     14252     14251     14253     14254     14256     14257
     14254     14256     14258     14254     14256     14259     14254     14260     14261
     14254     14260     14262     14254     14260     14263     14255     14254     14256
     14255     14254     14260     14256     14254     14260     14257     14256     14258
     14257     14256     14259     14258     14256     14259     14260     14263     14264
     14260     14263     14265     14260     14263     14266     14261     14260     14262
     14261     14260     14263     14262     14260     14263     14263     14266     14267
     14263     14266     14268     14263     14266     14269     14264     14263     14265
     14264     14263     14266     14265     14263     14266     14266     14269     14270
     14266     14269     14271     14266     14269     14275     14267     14266     14268
     14267     14266     14269     14268     14266     14269     14269     14271     14272
     14269     14271     14273     14269     14271     14274     14269     14275     14276
     14269     14275     14277     14269     14275     14278     14270     14269     14271
     14270     14269     14275     14271     14269     14275     14272     14271     14273
     14272     14271     14274     14273     14271     14274     14276     14275     14277
     14276     14275     14278     14277     14275     14278     14279     14283     14284
     14279     14283     14285     14279     14283     14286     14280     14279     14281
     14280     14279     14282     14280     14279     14283     14281     14279     14282
     14281     14279     14283     14282     14279     14283     14283     14286     14287
     14283     14286     14288     14283     14286     14293     14284     14283     14285
     14284     14283     14286     14285     14283     14286     14286     14293     14289
     14287     14286     14288     14287     14286     14293     14288     14286     14293
     14289     14292     14294     14290     14289     14291     14290     14289     14292
     14290     14289     14293     14291     14289     14292     14291     14289     14293
     14292     14289     14293     14292     14294     14295     14292     14294     14296
     14292     14294     14297     14294     14297     14298     14294     14297     14299
     14294     14297     14305     14295     14294     14296     14295     14294     14297
     14296     14294     14297     14297     14299     14300     14297     14305     14306
     14297     14305     14307     14297     14305     14308     14298     14297     14299
     14298     14297     14305     14299     14297     14305     14299     14300     14301
     14299     14300     14302     14300     14302     14303     14300     14302     14304
     14300     14302     14314     14301     14300     14302     14302     14314     14315
     14302     14314     14316     14302     14314     14317     14303     14302     14304
     14303     14302     14314     14304     14302     14314     14305     14308     14309
     14306     14305     14307     14306     14305     14308     14307     14305     14308
     14308     14309     14310     14308     14309     14311     14309     14311     14312
     14309     14311     14313     14309     14311     14361     14310     14309     14311
     14311     14361     14362     14311     14361     14363     14311     14361     14364
     14312     14311     14313     14312     14311     14361     14313     14311     14361
     14314     14317     14318     14314     14317     14319     14314     14317     14320
     14315     14314     14316     14315     14314     14317     14316     14314     14317
     14317     14320     14321     14317     14320     14322     14317     14320     14323
     14318     14317     14319     14318     14317     14320     14319     14317     14320
     14320     14323     14324     14320     14323     14325     14320     14323     14326
     14321     14320     14322     14321     14320     14323     14322     14320     14323
     14323     14326     14327     14323     14326     14328     14323     14326     14329
     14324     14323     14325     14324     14323     14326     14325     14323     14326
     14326     14329     14330     14326     14329     14331     14326     14329     14332
     14327     14326     14328     14327     14326     14329     14328     14326     14329
     14329     14332     14333     14329     14332     14334     14330     14329     14331
     14330     14329     14332     14331     14329     14332     14332     14334     14335
     14332     14334     14336     14333     14332     14334     14334     14336     14337
     14334     14336     14338     14334     14336     14339     14335     14334     14336
     14336     14339     14340     14336     14339     14341     14336     14339     14342
     14337     14336     14338     14337     14336     14339     14338     14336     14339
     14339     14342     14343     14339     14342     14344     14339     14342     14345
     14340     14339     14341     14340     14339     14342     14341     14339     14342
     14342     14345     14346     14342     14345     14347     14342     14345     14348
     14343     14342     14344     14343     14342     14345     14344     14342     14345
     14345     14348     14349     14345     14348     14350     14345     14348     14351
     14346     14345     14347     14346     14345     14348     14347     14345     14348
     14348     14351     14352     14348     14351     14353     14348     14351     14354
     14349     14348     14350     14349     14348     14351     14350     14348     14351
     14351     14354     14355     14351     14354     14356     14351     14354     14357
     14352     14351     14353     14352     14351     14354     14353     14351     14354
     14354     14357     14358     14354     14357     14359     14354     14357     14360
     14355     14354     14356     14355     14354     14357     14356     14354     14357
     14358     14357     14359     14358     14357     14360     14359     14357     14360
     14361     14364     14365     14361     14364     14366     14361     14364     14367
     14362     14361     14363     14362     14361     14364     14363     14361     14364
     14364     14367     14368     14364     14367     14369     14364     14367     14370
     14365     14364     14366     14365     14364     14367     14366     14364     14367
     14367     14370     14371     14367     14370     14372     14367     14370     14373
     14368     14367     14369     14368     14367     14370     14369     14367     14370
     14370     14373     14374     14370     14373     14375     14370     14373     14376
     14371     14370     14372     14371     14370     14373     14372     14370     14373
     14373     14376     14377     14373     14376     14378     14373     14376     14379
     14374     14373     14375     14374     14373     14376     14375     14373     14376
     14376     14379     14380     14376     14379     14381     14377     14376     14378
     14377     14376     14379     14378     14376     14379     14379     14381     14382
     14379     14381     14383     14380     14379     14381     14381     14383     14384
     14381     14383     14385     14381     14383     14386     14382     14381     14383
     14383     14386     14387     14383     14386     14388     14383     14386     14389
     14384     14383     14385     14384     14383     14386     14385     14383     14386
     14386     14389     14390     14386     14389     14391     14386     14389     14392
     14387     14386     14388     14387     14386     14389     14388     14386     14389
     14389     14392     14393     14389     14392     14394     14389     14392     14395
     14390     14389     14391     14390     14389     14392     14391     14389     14392
     14392     14395     14396     14392     14395     14397     14392     14395     14398
     14393     14392     14394     14393     14392     14395     14394     14392     14395
     14395     14398     14399     14395     14398     14400     14395     14398     14401
     14396     14395     14397     14396     14395     14398     14397     14395     14398
     14398     14401     14402     14398     14401     14403     14398     14401     14404
     14399     14398     14400     14399     14398     14401     14400     14398     14401
     14401     14404     14405     14401     14404     14406     14401     14404     14407
     14402     14401     14403     14402     14401     14404     14403     14401     14404
     14405     14404     14406     14405     14404     14407     14406     14404     14407
     14408     14409     14410     14408     14409     14411     14408     14409     14424
     14408     14412     14413     14408     14412     14414     14408     14412     14415
     14408     14416     14417     14408     14416     14418     14408     14416     14419
     14408     14420     14421     14408     14420     14422     14408     14420     14423
     14409     14408     14412     14409     14408     14416     14409     14408     14420
     14409     14424     14425     14409     14424     14426     14409     14424     14430
     14410     14409     14411     14410     14409     14424     14411     14409     14424
     14412     14408     14416     14412     14408     14420     14413     14412     14414
     14413     14412     14415     14414     14412     14415     14416     14408     14420
     14417     14416     14418     14417     14416     14419     14418     14416     14419
     14421     14420     14422     14421     14420     14423     14422     14420     14423
     14424     14430     14427     14425     14424     14426     14425     14424     14430
     14426     14424     14430     14427     14431     14432     14428     14427     14429
     14428     14427     14430     14428     14427     14431     14429     14427     14430
     14429     14427     14431     14430     14427     14431     14431     14432     14433
     14431     14432     14434     14431     14432     14435     14432     14435     14436
     14432     14435     14437     14432     14435     14443     14433     14432     14434
     14433     14432     14435     14434     14432     14435     14435     14437     14438
     14435     14443     14444     14435     14443     14445     14435     14443     14446
     14436     14435     14437     14436     14435     14443     14437     14435     14443
     14437     14438     14439     14437     14438     14440     14438     14440     14441
     14438     14440     14442     14438     14440     14452     14439     14438     14440
     14440     14452     14453     14440     14452     14454     14440     14452     14455
     14441     14440     14442     14441     14440     14452     14442     14440     14452
     14443     14446     14447     14444     14443     14445     14444     14443     14446
     14445     14443     14446     14446     14447     14448     14446     14447     14449
     14447     14449     14450     14447     14449     14451     14447     14449     14499
     14448     14447     14449     14449     14499     14500     14449     14499     14501
     14449     14499     14502     14450     14449     14451     14450     14449     14499
     14451     14449     14499     14452     14455     14456     14452     14455     14457
     14452     14455     14458     14453     14452     14454     14453     14452     14455
     14454     14452     14455     14455     14458     14459     14455     14458     14460
     14455     14458     14461     14456     14455     14457     14456     14455     14458
     14457     14455     14458     14458     14461     14462     14458     14461     14463
     14458     14461     14464     14459     14458     14460     14459     14458     14461
     14460     14458     14461     14461     14464     14465     14461     14464     14466
     14461     14464     14467     14462     14461     14463     14462     14461     14464
     14463     14461     14464     14464     14467     14468     14464     14467     14469
     14464     14467     14470     14465     14464     14466     14465     14464     14467
     14466     14464     14467     14467     14470     14471     14467     14470     14472
     14468     14467     14469     14468     14467     14470     14469     14467     14470
     14470     14472     14473     14470     14472     14474     14471     14470     14472
     14472     14474     14475     14472     14474     14476     14472     14474     14477
     14473     14472     14474     14474     14477     14478     14474     14477     14479
     14474     14477     14480     14475     14474     14476     14475     14474     14477
     14476     14474     14477     14477     14480     14481     14477     14480     14482
     14477     14480     14483     14478     14477     14479     14478     14477     14480
     14479     14477     14480     14480     14483     14484     14480     14483     14485
     14480     14483     14486     14481     14480     14482     14481     14480     14483
     14482     14480     14483     14483     14486     14487     14483     14486     14488
     14483     14486     14489     14484     14483     14485     14484     14483     14486
     14485     14483     14486     14486     14489     14490     14486     14489     14491
     14486     14489     14492     14487     14486     14488     14487     14486     14489
     14488     14486     14489     14489     14492     14493     14489     14492     14494
     14489     14492     14495     14490     14489     14491     14490     14489     14492
     14491     14489     14492     14492     14495     14496     14492     14495     14497
     14492     14495     14498     14493     14492     14494     14493     14492     14495
     14494     14492     14495     14496     14495     14497     14496     14495     14498
     14497     14495     14498     14499     14502     14503     14499     14502     14504
     14499     14502     14505     14500     14499     14501     14500     14499     14502
     14501     14499     14502     14502     14505     14506     14502     14505     14507
     14502     14505     14508     14503     14502     14504     14503     14502     14505
     14504     14502     14505     14505     14508     14509     14505     14508     14510
     14505     14508     14511     14506     14505     14507     14506     14505     14508
     14507     14505     14508     14508     14511     14512     14508     14511     14513
     14508     14511     14514     14509     14508     14510     14509     14508     14511
     14510     14508     14511     14511     14514     14515     14511     14514     14516
     14511     14514     14517     14512     14511     14513     14512     14511     14514
     14513     14511     14514     14514     14517     14518     14514     14517     14519
     14515     14514     14516     14515     14514     14517     14516     14514     14517
     14517     14519     14520     14517     14519     14521     14518     14517     14519
     14519     14521     14522     14519     14521     14523     14519     14521     14524
     14520     14519     14521     14521     14524     14525     14521     14524     14526
     14521     14524     14527     14522     14521     14523     14522     14521     14524
     14523     14521     14524     14524     14527     14528     14524     14527     14529
     14524     14527     14530     14525     14524     14526     14525     14524     14527
     14526     14524     14527     14527     14530     14531     14527     14530     14532
     14527     14530     14533     14528     14527     14529     14528     14527     14530
     14529     14527     14530     14530     14533     14534     14530     14533     14535
     14530     14533     14536     14531     14530     14532     14531     14530     14533
     14532     14530     14533     14533     14536     14537     14533     14536     14538
     14533     14536     14539     14534     14533     14535     14534     14533     14536
     14535     14533     14536     14536     14539     14540     14536     14539     14541
     14536     14539     14542     14537     14536     14538     14537     14536     14539
     14538     14536     14539     14539     14542     14543     14539     14542     14544
     14539     14542     14545     14540     14539     14541     14540     14539     14542
     14541     14539     14542     14543     14542     14544     14543     14542     14545
     14544     14542     14545     14546     14550     14551     14546     14550     14552
     14546     14550     14553     14547     14546     14548     14547     14546     14549
     14547     14546     14550     14548     14546     14549     14548     14546     14550
     14549     14546     14550     14550     14553     14554     14550     14553     14555
     14550     14553     14560     14551     14550     14552     14551     14550     14553
     14552     14550     14553     14553     14560     14556     14554     14553     14555
     14554     14553     14560     14555     14553     14560     14556     14559     14561
     14557     14556     14558     14557     14556     14559     14557     14556     14560
     14558     14556     14559     14558     14556     14560     14559     14556     14560
     14559     14561     14562     14559     14561     14563     14559     14561     14564
     14561     14564     14565     14561     14564     14566     14561     14564     14572
     14562     14561     14563     14562     14561     14564     14563     14561     14564
     14564     14566     14567     14564     14572     14573     14564     14572     14574
     14564     14572     14575     14565     14564     14566     14565     14564     14572
     14566     14564     14572     14566     14567     14568     14566     14567     14569
     14567     14569     14570     14567     14569     14571     14567     14569     14581
     14568     14567     14569     14569     14581     14582     14569     14581     14583
     14569     14581     14584     14570     14569     14571     14570     14569     14581
     14571     14569     14581     14572     14575     14576     14573     14572     14574
     14573     14572     14575     14574     14572     14575     14575     14576     14577
     14575     14576     14578     14576     14578     14579     14576     14578     14580
     14576     14578     14628     14577     14576     14578     14578     14628     14629
     14578     14628     14630     14578     14628     14631     14579     14578     14580
     14579     14578     14628     14580     14578     14628     14581     14584     14585
     14581     14584     14586     14581     14584     14587     14582     14581     14583
     14582     14581     14584     14583     14581     14584     14584     14587     14588
     14584     14587     14589     14584     14587     14590     14585     14584     14586
     14585     14584     14587     14586     14584     14587     14587     14590     14591
     14587     14590     14592     14587     14590     14593     14588     14587     14589
     14588     14587     14590     14589     14587     14590     14590     14593     14594
     14590     14593     14595     14590     14593     14596     14591     14590     14592
     14591     14590     14593     14592     14590     14593     14593     14596     14597
     14593     14596     14598     14593     14596     14599     14594     14593     14595
     14594     14593     14596     14595     14593     14596     14596     14599     14600
     14596     14599     14601     14597     14596     14598     14597     14596     14599
     14598     14596     14599     14599     14601     14602     14599     14601     14603
     14600     14599     14601     14601     14603     14604     14601     14603     14605
     14601     14603     14606     14602     14601     14603     14603     14606     14607
     14603     14606     14608     14603     14606     14609     14604     14603     14605
     14604     14603     14606     14605     14603     14606     14606     14609     14610
     14606     14609     14611     14606     14609     14612     14607     14606     14608
     14607     14606     14609     14608     14606     14609     14609     14612     14613
     14609     14612     14614     14609     14612     14615     14610     14609     14611
     14610     14609     14612     14611     14609     14612     14612     14615     14616
     14612     14615     14617     14612     14615     14618     14613     14612     14614
     14613     14612     14615     14614     14612     14615     14615     14618     14619
     14615     14618     14620     14615     14618     14621     14616     14615     14617
     14616     14615     14618     14617     14615     14618     14618     14621     14622
     14618     14621     14623     14618     14621     14624     14619     14618     14620
     14619     14618     14621     14620     14618     14621     14621     14624     14625
     14621     14624     14626     14621     14624     14627     14622     14621     14623
     14622     14621     14624     14623     14621     14624     14625     14624     14626
     14625     14624     14627     14626     14624     14627     14628     14631     14632
     14628     14631     14633     14628     14631     14634     14629     14628     14630
     14629     14628     14631     14630     14628     14631     14631     14634     14635
     14631     14634     14636     14631     14634     14637     14632     14631     14633
     14632     14631     14634     14633     14631     14634     14634     14637     14638
     14634     14637     14639     14634     14637     14640     14635     14634     14636
     14635     14634     14637     14636     14634     14637     14637     14640     14641
     14637     14640     14642     14637     14640     14643     14638     14637     14639
     14638     14637     14640     14639     14637     14640     14640     14643     14644
     14640     14643     14645     14640     14643     14646     14641     14640     14642
     14641     14640     14643     14642     14640     14643     14643     14646     14647
     14643     14646     14648     14644     14643     14645     14644     14643     14646
     14645     14643     14646     14646     14648     14649     14646     14648     14650
     14647     14646     14648     14648     14650     14651     14648     14650     14652
     14648     14650     14653     14649     14648     14650     14650     14653     14654
     14650     14653     14655     14650     14653     14656     14651     14650     14652
     14651     14650     14653     14652     14650     14653     14653     14656     14657
     14653     14656     14658     14653     14656     14659     14654     14653     14655
     14654     14653     14656     14655     14653     14656     14656     14659     14660
     14656     14659     14661     14656     14659     14662     14657     14656     14658
     14657     14656     14659     14658     14656     14659     14659     14662     14663
     14659     14662     14664     14659     14662     14665     14660     14659     14661
     14660     14659     14662     14661     14659     14662     14662     14665     14666
     14662     14665     14667     14662     14665     14668     14663     14662     14664
     14663     14662     14665     14664     14662     14665     14665     14668     14669
     14665     14668     14670     14665     14668     14671     14666     14665     14667
     14666     14665     14668     14667     14665     14668     14668     14671     14672
     14668     14671     14673     14668     14671     14674     14669     14668     14670
     14669     14668     14671     14670     14668     14671     14672     14671     14673
     14672     14671     14674     14673     14671     14674     14675     14676     14677
     14675     14676     14678     14675     14676     14691     14675     14679     14680
     14675     14679     14681     14675     14679     14682     14675     14683     14684
     14675     14683     14685     14675     14683     14686     14675     14687     14688
     14675     14687     14689     14675     14687     14690     14676     14675     14679
     14676     14675     14683     14676     14675     14687     14676     14691     14692
     14676     14691     14693     14676     14691     14697     14677     14676     14678
     14677     14676     14691     14678     14676     14691     14679     14675     14683
     14679     14675     14687     14680     14679     14681     14680     14679     14682
     14681     14679     14682     14683     14675     14687     14684     14683     14685
     14684     14683     14686     14685     14683     14686     14688     14687     14689
     14688     14687     14690     14689     14687     14690     14691     14697     14694
     14692     14691     14693     14692     14691     14697     14693     14691     14697
     14694     14698     14699     14695     14694     14696     14695     14694     14697
     14695     14694     14698     14696     14694     14697     14696     14694     14698
     14697     14694     14698     14698     14699     14700     14698     14699     14701
     14698     14699     14702     14699     14702     14703     14699     14702     14704
     14699     14702     14710     14700     14699     14701     14700     14699     14702
     14701     14699     14702     14702     14704     14705     14702     14710     14711
     14702     14710     14712     14702     14710     14713     14703     14702     14704
     14703     14702     14710     14704     14702     14710     14704     14705     14706
     14704     14705     14707     14705     14707     14708     14705     14707     14709
     14705     14707     14719     14706     14705     14707     14707     14719     14720
     14707     14719     14721     14707     14719     14722     14708     14707     14709
     14708     14707     14719     14709     14707     14719     14710     14713     14714
     14711     14710     14712     14711     14710     14713     14712     14710     14713
     14713     14714     14715     14713     14714     14716     14714     14716     14717
     14714     14716     14718     14714     14716     14766     14715     14714     14716
     14716     14766     14767     14716     14766     14768     14716     14766     14769
     14717     14716     14718     14717     14716     14766     14718     14716     14766
     14719     14722     14723     14719     14722     14724     14719     14722     14725
     14720     14719     14721     14720     14719     14722     14721     14719     14722
     14722     14725     14726     14722     14725     14727     14722     14725     14728
     14723     14722     14724     14723     14722     14725     14724     14722     14725
     14725     14728     14729     14725     14728     14730     14725     14728     14731
     14726     14725     14727     14726     14725     14728     14727     14725     14728
     14728     14731     14732     14728     14731     14733     14728     14731     14734
     14729     14728     14730     14729     14728     14731     14730     14728     14731
     14731     14734     14735     14731     14734     14736     14731     14734     14737
     14732     14731     14733     14732     14731     14734     14733     14731     14734
     14734     14737     14738     14734     14737     14739     14735     14734     14736
     14735     14734     14737     14736     14734     14737     14737     14739     14740
     14737     14739     14741     14738     14737     14739     14739     14741     14742
     14739     14741     14743     14739     14741     14744     14740     14739     14741
     14741     14744     14745     14741     14744     14746     14741     14744     14747
     14742     14741     14743     14742     14741     14744     14743     14741     14744
     14744     14747     14748     14744     14747     14749     14744     14747     14750
     14745     14744     14746     14745     14744     14747     14746     14744     14747
     14747     14750     14751     14747     14750     14752     14747     14750     14753
     14748     14747     14749     14748     14747     14750     14749     14747     14750
     14750     14753     14754     14750     14753     14755     14750     14753     14756
     14751     14750     14752     14751     14750     14753     14752     14750     14753
     14753     14756     14757     14753     14756     14758     14753     14756     14759
     14754     14753     14755     14754     14753     14756     14755     14753     14756
     14756     14759     14760     14756     14759     14761     14756     14759     14762
     14757     14756     14758     14757     14756     14759     14758     14756     14759
     14759     14762     14763     14759     14762     14764     14759     14762     14765
     14760     14759     14761     14760     14759     14762     14761     14759     14762
     14763     14762     14764     14763     14762     14765     14764     14762     14765
     14766     14769     14770     14766     14769     14771     14766     14769     14772
     14767     14766     14768     14767     14766     14769     14768     14766     14769
     14769     14772     14773     14769     14772     14774     14769     14772     14775
     14770     14769     14771     14770     14769     14772     14771     14769     14772
     14772     14775     14776     14772     14775     14777     14772     14775     14778
     14773     14772     14774     14773     14772     14775     14774     14772     14775
     14775     14778     14779     14775     14778     14780     14775     14778     14781
     14776     14775     14777     14776     14775     14778     14777     14775     14778
     14778     14781     14782     14778     14781     14783     14778     14781     14784
     14779     14778     14780     14779     14778     14781     14780     14778     14781
     14781     14784     14785     14781     14784     14786     14782     14781     14783
     14782     14781     14784     14783     14781     14784     14784     14786     14787
     14784     14786     14788     14785     14784     14786     14786     14788     14789
     14786     14788     14790     14786     14788     14791     14787     14786     14788
     14788     14791     14792     14788     14791     14793     14788     14791     14794
     14789     14788     14790     14789     14788     14791     14790     14788     14791
     14791     14794     14795     14791     14794     14796     14791     14794     14797
     14792     14791     14793     14792     14791     14794     14793     14791     14794
     14794     14797     14798     14794     14797     14799     14794     14797     14800
     14795     14794     14796     14795     14794     14797     14796     14794     14797
     14797     14800     14801     14797     14800     14802     14797     14800     14803
     14798     14797     14799     14798     14797     14800     14799     14797     14800
     14800     14803     14804     14800     14803     14805     14800     14803     14806
     14801     14800     14802     14801     14800     14803     14802     14800     14803
     14803     14806     14807     14803     14806     14808     14803     14806     14809
     14804     14803     14805     14804     14803     14806     14805     14803     14806
     14806     14809     14810     14806     14809     14811     14806     14809     14812
     14807     14806     14808     14807     14806     14809     14808     14806     14809
     14810     14809     14811     14810     14809     14812     14811     14809     14812
     14813     14817     14818     14813     14817     14819     14813     14817     14820
     14814     14813     14815     14814     14813     14816     14814     14813     14817
     14815     14813     14816     14815     14813     14817     14816     14813     14817
     14817     14820     14821     14817     14820     14822     14817     14820     14827
     14818     14817     14819     14818     14817     14820     14819     14817     14820
     14820     14827     14823     14821     14820     14822     14821     14820     14827
     14822     14820     14827     14823     14826     14828     14824     14823     14825
     14824     14823     14826     14824     14823     14827     14825     14823     14826
     14825     14823     14827     14826     14823     14827     14826     14828     14829
     14826     14828     14830     14826     14828     14831     14828     14831     14832
     14828     14831     14833     14828     14831     14839     14829     14828     14830
     14829     14828     14831     14830     14828     14831     14831     14833     14834
     14831     14839     14840     14831     14839     14841     14831     14839     14842
     14832     14831     14833     14832     14831     14839     14833     14831     14839
     14833     14834     14835     14833     14834     14836     14834     14836     14837
     14834     14836     14838     14834     14836     14848     14835     14834     14836
     14836     14848     14849     14836     14848     14850     14836     14848     14851
     14837     14836     14838     14837     14836     14848     14838     14836     14848
     14839     14842     14843     14840     14839     14841     14840     14839     14842
     14841     14839     14842     14842     14843     14844     14842     14843     14845
     14843     14845     14846     14843     14845     14847     14843     14845     14895
     14844     14843     14845     14845     14895     14896     14845     14895     14897
     14845     14895     14898     14846     14845     14847     14846     14845     14895
     14847     14845     14895     14848     14851     14852     14848     14851     14853
     14848     14851     14854     14849     14848     14850     14849     14848     14851
     14850     14848     14851     14851     14854     14855     14851     14854     14856
     14851     14854     14857     14852     14851     14853     14852     14851     14854
     14853     14851     14854     14854     14857     14858     14854     14857     14859
     14854     14857     14860     14855     14854     14856     14855     14854     14857
     14856     14854     14857     14857     14860     14861     14857     14860     14862
     14857     14860     14863     14858     14857     14859     14858     14857     14860
     14859     14857     14860     14860     14863     14864     14860     14863     14865
     14860     14863     14866     14861     14860     14862     14861     14860     14863
     14862     14860     14863     14863     14866     14867     14863     14866     14868
     14864     14863     14865     14864     14863     14866     14865     14863     14866
     14866     14868     14869     14866     14868     14870     14867     14866     14868
     14868     14870     14871     14868     14870     14872     14868     14870     14873
     14869     14868     14870     14870     14873     14874     14870     14873     14875
     14870     14873     14876     14871     14870     14872     14871     14870     14873
     14872     14870     14873     14873     14876     14877     14873     14876     14878
     14873     14876     14879     14874     14873     14875     14874     14873     14876
     14875     14873     14876     14876     14879     14880     14876     14879     14881
     14876     14879     14882     14877     14876     14878     14877     14876     14879
     14878     14876     14879     14879     14882     14883     14879     14882     14884
     14879     14882     14885     14880     14879     14881     14880     14879     14882
     14881     14879     14882     14882     14885     14886     14882     14885     14887
     14882     14885     14888     14883     14882     14884     14883     14882     14885
     14884     14882     14885     14885     14888     14889     14885     14888     14890
     14885     14888     14891     14886     14885     14887     14886     14885     14888
     14887     14885     14888     14888     14891     14892     14888     14891     14893
     14888     14891     14894     14889     14888     14890     14889     14888     14891
     14890     14888     14891     14892     14891     14893     14892     14891     14894
     14893     14891     14894     14895     14898     14899     14895     14898     14900
     14895     14898     14901     14896     14895     14897     14896     14895     14898
     14897     14895     14898     14898     14901     14902     14898     14901     14903
     14898     14901     14904     14899     14898     14900     14899     14898     14901
     14900     14898     14901     14901     14904     14905     14901     14904     14906
     14901     14904     14907     14902     14901     14903     14902     14901     14904
     14903     14901     14904     14904     14907     14908     14904     14907     14909
     14904     14907     14910     14905     14904     14906     14905     14904     14907
     14906     14904     14907     14907     14910     14911     14907     14910     14912
     14907     14910     14913     14908     14907     14909     14908     14907     14910
     14909     14907     14910     14910     14913     14914     14910     14913     14915
     14911     14910     14912     14911     14910     14913     14912     14910     14913
     14913     14915     14916     14913     14915     14917     14914     14913     14915
     14915     14917     14918     14915     14917     14919     14915     14917     14920
     14916     14915     14917     14917     14920     14921     14917     14920     14922
     14917     14920     14923     14918     14917     14919     14918     14917     14920
     14919     14917     14920     14920     14923     14924     14920     14923     14925
     14920     14923     14926     14921     14920     14922     14921     14920     14923
     14922     14920     14923     14923     14926     14927     14923     14926     14928
     14923     14926     14929     14924     14923     14925     14924     14923     14926
     14925     14923     14926     14926     14929     14930     14926     14929     14931
     14926     14929     14932     14927     14926     14928     14927     14926     14929
     14928     14926     14929     14929     14932     14933     14929     14932     14934
     14929     14932     14935     14930     14929     14931     14930     14929     14932
     14931     14929     14932     14932     14935     14936     14932     14935     14937
     14932     14935     14938     14933     14932     14934     14933     14932     14935
     14934     14932     14935     14935     14938     14939     14935     14938     14940
     14935     14938     14941     14936     14935     14937     14936     14935     14938
     14937     14935     14938     14939     14938     14940     14939     14938     14941
     14940     14938     14941     14942     14946     14947     14942     14946     14948
     14942     14946     14949     14943     14942     14944     14943     14942     14945
     14943     14942     14946     14944     14942     14945     14944     14942     14946
     14945     14942     14946     14946     14949     14950     14946     14949     14951
     14946     14949     14956     14947     14946     14948     14947     14946     14949
     14948     14946     14949     14949     14956     14952     14950     14949     14951
     14950     14949     14956     14951     14949     14956     14952     14955     14957
     14953     14952     14954     14953     14952     14955     14953     14952     14956
     14954     14952     14955     14954     14952     14956     14955     14952     14956
     14955     14957     14958     14955     14957     14959     14955     14957     14960
     14957     14960     14961     14957     14960     14962     14957     14960     14968
     14958     14957     14959     14958     14957     14960     14959     14957     14960
     14960     14962     14963     14960     14968     14969     14960     14968     14970
     14960     14968     14971     14961     14960     14962     14961     14960     14968
     14962     14960     14968     14962     14963     14964     14962     14963     14965
     14963     14965     14966     14963     14965     14967     14963     14965     14977
     14964     14963     14965     14965     14977     14978     14965     14977     14979
     14965     14977     14980     14966     14965     14967     14966     14965     14977
     14967     14965     14977     14968     14971     14972     14969     14968     14970
     14969     14968     14971     14970     14968     14971     14971     14972     14973
     14971     14972     14974     14972     14974     14975     14972     14974     14976
     14972     14974     15024     14973     14972     14974     14974     15024     15025
     14974     15024     15026     14974     15024     15027     14975     14974     14976
     14975     14974     15024     14976     14974     15024     14977     14980     14981
     14977     14980     14982     14977     14980     14983     14978     14977     14979
     14978     14977     14980     14979     14977     14980     14980     14983     14984
     14980     14983     14985     14980     14983     14986     14981     14980     14982
     14981     14980     14983     14982     14980     14983     14983     14986     14987
     14983     14986     14988     14983     14986     14989     14984     14983     14985
     14984     14983     14986     14985     14983     14986     14986     14989     14990
     14986     14989     14991     14986     14989     14992     14987     14986     14988
     14987     14986     14989     14988     14986     14989     14989     14992     14993
     14989     14992     14994     14989     14992     14995     14990     14989     14991
     14990     14989     14992     14991     14989     14992     14992     14995     14996
     14992     14995     14997     14993     14992     14994     14993     14992     14995
     14994     14992     14995     14995     14997     14998     14995     14997     14999
     14996     14995     14997     14997     14999     15000     14997     14999     15001
     14997     14999     15002     14998     14997     14999     14999     15002     15003
     14999     15002     15004     14999     15002     15005     15000     14999     15001
     15000     14999     15002     15001     14999     15002     15002     15005     15006
     15002     15005     15007     15002     15005     15008     15003     15002     15004
     15003     15002     15005     15004     15002     15005     15005     15008     15009
     15005     15008     15010     15005     15008     15011     15006     15005     15007
     15006     15005     15008     15007     15005     15008     15008     15011     15012
     15008     15011     15013     15008     15011     15014     15009     15008     15010
     15009     15008     15011     15010     15008     15011     15011     15014     15015
     15011     15014     15016     15011     15014     15017     15012     15011     15013
     15012     15011     15014     15013     15011     15014     15014     15017     15018
     15014     15017     15019     15014     15017     15020     15015     15014     15016
     15015     15014     15017     15016     15014     15017     15017     15020     15021
     15017     15020     15022     15017     15020     15023     15018     15017     15019
     15018     15017     15020     15019     15017     15020     15021     15020     15022
     15021     15020     15023     15022     15020     15023     15024     15027     15028
     15024     15027     15029     15024     15027     15030     15025     15024     15026
     15025     15024     15027     15026     15024     15027     15027     15030     15031
     15027     15030     15032     15027     15030     15033     15028     15027     15029
     15028     15027     15030     15029     15027     15030     15030     15033     15034
     15030     15033     15035     15030     15033     15036     15031     15030     15032
     15031     15030     15033     15032     15030     15033     15033     15036     15037
     15033     15036     15038     15033     15036     15039     15034     15033     15035
     15034     15033     15036     15035     15033     15036     15036     15039     15040
     15036     15039     15041     15036     15039     15042     15037     15036     15038
     15037     15036     15039     15038     15036     15039     15039     15042     15043
     15039     15042     15044     15040     15039     15041     15040     15039     15042
     15041     15039     15042     15042     15044     15045     15042     15044     15046
     15043     15042     15044     15044     15046     15047     15044     15046     15048
     15044     15046     15049     15045     15044     15046     15046     15049     15050
     15046     15049     15051     15046     15049     15052     15047     15046     15048
     15047     15046     15049     15048     15046     15049     15049     15052     15053
     15049     15052     15054     15049     15052     15055     15050     15049     15051
     15050     15049     15052     15051     15049     15052     15052     15055     15056
     15052     15055     15057     15052     15055     15058     15053     15052     15054
     15053     15052     15055     15054     15052     15055     15055     15058     15059
     15055     15058     15060     15055     15058     15061     15056     15055     15057
     15056     15055     15058     15057     15055     15058     15058     15061     15062
     15058     15061     15063     15058     15061     15064     15059     15058     15060
     15059     15058     15061     15060     15058     15061     15061     15064     15065
     15061     15064     15066     15061     15064     15067     15062     15061     15063
     15062     15061     15064     15063     15061     15064     15064     15067     15068
     15064     15067     15069     15064     15067     15070     15065     15064     15066
     15065     15064     15067     15066     15064     15067     15068     15067     15069
     15068     15067     15070     15069     15067     15070     15071     15075     15076
     15071     15075     15077     15071     15075     15078     15072     15071     15073
     15072     15071     15074     15072     15071     15075     15073     15071     15074
     15073     15071     15075     15074     15071     15075     15075     15078     15079
     15075     15078     15080     15075     15078     15085     15076     15075     15077
     15076     15075     15078     15077     15075     15078     15078     15085     15081
     15079     15078     15080     15079     15078     15085     15080     15078     15085
     15081     15084     15086     15082     15081     15083     15082     15081     15084
     15082     15081     15085     15083     15081     15084     15083     15081     15085
     15084     15081     15085     15084     15086     15087     15084     15086     15088
     15084     15086     15089     15086     15089     15090     15086     15089     15091
     15086     15089     15097     15087     15086     15088     15087     15086     15089
     15088     15086     15089     15089     15091     15092     15089     15097     15098
     15089     15097     15099     15089     15097     15100     15090     15089     15091
     15090     15089     15097     15091     15089     15097     15091     15092     15093
     15091     15092     15094     15092     15094     15095     15092     15094     15096
     15092     15094     15106     15093     15092     15094     15094     15106     15107
     15094     15106     15108     15094     15106     15109     15095     15094     15096
     15095     15094     15106     15096     15094     15106     15097     15100     15101
     15098     15097     15099     15098     15097     15100     15099     15097     15100
     15100     15101     15102     15100     15101     15103     15101     15103     15104
     15101     15103     15105     15101     15103     15153     15102     15101     15103
     15103     15153     15154     15103     15153     15155     15103     15153     15156
     15104     15103     15105     15104     15103     15153     15105     15103     15153
     15106     15109     15110     15106     15109     15111     15106     15109     15112
     15107     15106     15108     15107     15106     15109     15108     15106     15109
     15109     15112     15113     15109     15112     15114     15109     15112     15115
     15110     15109     15111     15110     15109     15112     15111     15109     15112
     15112     15115     15116     15112     15115     15117     15112     15115     15118
     15113     15112     15114     15113     15112     15115     15114     15112     15115
     15115     15118     15119     15115     15118     15120     15115     15118     15121
     15116     15115     15117     15116     15115     15118     15117     15115     15118
     15118     15121     15122     15118     15121     15123     15118     15121     15124
     15119     15118     15120     15119     15118     15121     15120     15118     15121
     15121     15124     15125     15121     15124     15126     15122     15121     15123
     15122     15121     15124     15123     15121     15124     15124     15126     15127
     15124     15126     15128     15125     15124     15126     15126     15128     15129
     15126     15128     15130     15126     15128     15131     15127     15126     15128
     15128     15131     15132     15128     15131     15133     15128     15131     15134
     15129     15128     15130     15129     15128     15131     15130     15128     15131
     15131     15134     15135     15131     15134     15136     15131     15134     15137
     15132     15131     15133     15132     15131     15134     15133     15131     15134
     15134     15137     15138     15134     15137     15139     15134     15137     15140
     15135     15134     15136     15135     15134     15137     15136     15134     15137
     15137     15140     15141     15137     15140     15142     15137     15140     15143
     15138     15137     15139     15138     15137     15140     15139     15137     15140
     15140     15143     15144     15140     15143     15145     15140     15143     15146
     15141     15140     15142     15141     15140     15143     15142     15140     15143
     15143     15146     15147     15143     15146     15148     15143     15146     15149
     15144     15143     15145     15144     15143     15146     15145     15143     15146
     15146     15149     15150     15146     15149     15151     15146     15149     15152
     15147     15146     15148     15147     15146     15149     15148     15146     15149
     15150     15149     15151     15150     15149     15152     15151     15149     15152
     15153     15156     15157     15153     15156     15158     15153     15156     15159
     15154     15153     15155     15154     15153     15156     15155     15153     15156
     15156     15159     15160     15156     15159     15161     15156     15159     15162
     15157     15156     15158     15157     15156     15159     15158     15156     15159
     15159     15162     15163     15159     15162     15164     15159     15162     15165
     15160     15159     15161     15160     15159     15162     15161     15159     15162
     15162     15165     15166     15162     15165     15167     15162     15165     15168
     15163     15162     15164     15163     15162     15165     15164     15162     15165
     15165     15168     15169     15165     15168     15170     15165     15168     15171
     15166     15165     15167     15166     15165     15168     15167     15165     15168
     15168     15171     15172     15168     15171     15173     15169     15168     15170
     15169     15168     15171     15170     15168     15171     15171     15173     15174
     15171     15173     15175     15172     15171     15173     15173     15175     15176
     15173     15175     15177     15173     15175     15178     15174     15173     15175
     15175     15178     15179     15175     15178     15180     15175     15178     15181
     15176     15175     15177     15176     15175     15178     15177     15175     15178
     15178     15181     15182     15178     15181     15183     15178     15181     15184
     15179     15178     15180     15179     15178     15181     15180     15178     15181
     15181     15184     15185     15181     15184     15186     15181     15184     15187
     15182     15181     15183     15182     15181     15184     15183     15181     15184
     15184     15187     15188     15184     15187     15189     15184     15187     15190
     15185     15184     15186     15185     15184     15187     15186     15184     15187
     15187     15190     15191     15187     15190     15192     15187     15190     15193
     15188     15187     15189     15188     15187     15190     15189     15187     15190
     15190     15193     15194     15190     15193     15195     15190     15193     15196
     15191     15190     15192     15191     15190     15193     15192     15190     15193
     15193     15196     15197     15193     15196     15198     15193     15196     15199
     15194     15193     15195     15194     15193     15196     15195     15193     15196
     15197     15196     15198     15197     15196     15199     15198     15196     15199
     15200     15201     15202     15200     15201     15203     15200     15201     15204
     15200     15205     15206     15200     15205     15207     15200     15205     15208
     15200     15209     15210     15200     15209     15211     15200     15209     15212
     15200     15213     15214     15200     15213     15215     15200     15213     15216
     15201     15200     15205     15201     15200     15209     15201     15200     15213
     15202     15201     15203     15202     15201     15204     15203     15201     15204
     15205     15200     15209     15205     15200     15213     15206     15205     15207
     15206     15205     15208     15207     15205     15208     15209     15200     15213
     15210     15209     15211     15210     15209     15212     15211     15209     15212
     15213     15216     15217     15213     15216     15218     15213     15216     15223
     15214     15213     15215     15214     15213     15216     15215     15213     15216
     15216     15223     15219     15217     15216     15218     15217     15216     15223
     15218     15216     15223     15219     15222     15224     15220     15219     15221
     15220     15219     15222     15220     15219     15223     15221     15219     15222
     15221     15219     15223     15222     15219     15223     15222     15224     15225
     15222     15224     15226     15222     15224     15229     15224     15229     15227
     15224     15229     15230     15224     15229     15231     15225     15224     15226
     15225     15224     15229     15226     15224     15229     15227     15229     15230
     15227     15229     15231     15227     15279     15280     15227     15279     15281
     15228     15227     15229     15228     15227     15279     15229     15227     15279
     15229     15231     15232     15229     15231     15233     15229     15231     15235
     15230     15229     15231     15231     15233     15234     15231     15235     15236
     15231     15235     15237     15232     15231     15233     15232     15231     15235
     15233     15231     15235     15235     15237     15238     15235     15237     15239
     15236     15235     15237     15237     15239     15240     15237     15239     15241
     15237     15239     15242     15238     15237     15239     15239     15242     15243
     15239     15242     15244     15239     15242     15245     15240     15239     15241
     15240     15239     15242     15241     15239     15242     15242     15245     15246
     15242     15245     15247     15242     15245     15248     15243     15242     15244
     15243     15242     15245     15244     15242     15245     15245     15248     15249
     15245     15248     15250     15245     15248     15251     15246     15245     15247
     15246     15245     15248     15247     15245     15248     15248     15251     15252
     15248     15251     15253     15248     15251     15254     15249     15248     15250
     15249     15248     15251     15250     15248     15251     15251     15254     15255
     15251     15254     15256     15251     15254     15257     15252     15251     15253
     15252     15251     15254     15253     15251     15254     15254     15257     15258
     15254     15257     15259     15254     15257     15260     15255     15254     15256
     15255     15254     15257     15256     15254     15257     15257     15260     15261
     15257     15260     15262     15257     15260     15263     15258     15257     15259
     15258     15257     15260     15259     15257     15260     15260     15263     15264
     15260     15263     15265     15260     15263     15266     15261     15260     15262
     15261     15260     15263     15262     15260     15263     15263     15266     15267
     15263     15266     15268     15263     15266     15269     15264     15263     15265
     15264     15263     15266     15265     15263     15266     15266     15269     15270
     15266     15269     15271     15266     15269     15272     15267     15266     15268
     15267     15266     15269     15268     15266     15269     15269     15272     15273
     15269     15272     15274     15269     15272     15275     15270     15269     15271
     15270     15269     15272     15271     15269     15272     15272     15275     15276
     15272     15275     15277     15272     15275     15278     15273     15272     15274
     15273     15272     15275     15274     15272     15275     15276     15275     15277
     15276     15275     15278     15277     15275     15278     15279     15281     15282
     15279     15281     15283     15279     15281     15284     15280     15279     15281
     15281     15284     15285     15281     15284     15286     15281     15284     15287
     15282     15281     15283     15282     15281     15284     15283     15281     15284
     15284     15287     15288     15284     15287     15289     15284     15287     15290
     15285     15284     15286     15285     15284     15287     15286     15284     15287
     15287     15290     15291     15287     15290     15292     15287     15290     15293
     15288     15287     15289     15288     15287     15290     15289     15287     15290
     15290     15293     15294     15290     15293     15295     15290     15293     15296
     15291     15290     15292     15291     15290     15293     15292     15290     15293
     15293     15296     15297     15293     15296     15298     15293     15296     15299
     15294     15293     15295     15294     15293     15296     15295     15293     15296
     15296     15299     15300     15296     15299     15301     15296     15299     15302
     15297     15296     15298     15297     15296     15299     15298     15296     15299
     15299     15302     15303     15299     15302     15304     15299     15302     15305
     15300     15299     15301     15300     15299     15302     15301     15299     15302
     15302     15305     15306     15302     15305     15307     15302     15305     15308
     15303     15302     15304     15303     15302     15305     15304     15302     15305
     15305     15308     15309     15305     15308     15310     15305     15308     15311
     15306     15305     15307     15306     15305     15308     15307     15305     15308
     15308     15311     15312     15308     15311     15313     15308     15311     15314
     15309     15308     15310     15309     15308     15311     15310     15308     15311
     15311     15314     15315     15311     15314     15316     15311     15314     15317
     15312     15311     15313     15312     15311     15314     15313     15311     15314
     15314     15317     15318     15314     15317     15319     15314     15317     15320
     15315     15314     15316     15315     15314     15317     15316     15314     15317
     15317     15320     15321     15317     15320     15322     15317     15320     15323
     15318     15317     15319     15318     15317     15320     15319     15317     15320
     15320     15323     15324     15320     15323     15325     15320     15323     15326
     15321     15320     15322     15321     15320     15323     15322     15320     15323
     15323     15326     15327     15323     15326     15328     15323     15326     15329
     15324     15323     15325     15324     15323     15326     15325     15323     15326
     15326     15329     15330     15326     15329     15331     15326     15329     15332
     15327     15326     15328     15327     15326     15329     15328     15326     15329
     15329     15332     15333     15329     15332     15334     15329     15332     15335
     15330     15329     15331     15330     15329     15332     15331     15329     15332
     15332     15335     15336     15332     15335     15337     15332     15335     15338
     15333     15332     15334     15333     15332     15335     15334     15332     15335
     15335     15338     15339     15335     15338     15340     15335     15338     15341
     15336     15335     15337     15336     15335     15338     15337     15335     15338
     15338     15341     15342     15338     15341     15343     15338     15341     15344
     15339     15338     15340     15339     15338     15341     15340     15338     15341
     15341     15344     15345     15341     15344     15346     15341     15344     15347
     15342     15341     15343     15342     15341     15344     15343     15341     15344
     15345     15344     15346     15345     15344     15347     15346     15344     15347
     15348     15349     15350     15348     15349     15351     15348     15349     15364
     15348     15352     15353     15348     15352     15354     15348     15352     15355
     15348     15356     15357     15348     15356     15358     15348     15356     15359
     15348     15360     15361     15348     15360     15362     15348     15360     15363
     15349     15348     15352     15349     15348     15356     15349     15348     15360
     15349     15364     15365     15349     15364     15366     15349     15364     15370
     15350     15349     15351     15350     15349     15364     15351     15349     15364
     15352     15348     15356     15352     15348     15360     15353     15352     15354
     15353     15352     15355     15354     15352     15355     15356     15348     15360
     15357     15356     15358     15357     15356     15359     15358     15356     15359
     15361     15360     15362     15361     15360     15363     15362     15360     15363
     15364     15370     15367     15365     15364     15366     15365     15364     15370
     15366     15364     15370     15367     15371     15372     15368     15367     15369
     15368     15367     15370     15368     15367     15371     15369     15367     15370
     15369     15367     15371     15370     15367     15371     15371     15372     15373
     15371     15372     15374     15371     15372     15375     15372     15375     15376
     15372     15375     15377     15372     15375     15383     15373     15372     15374
     15373     15372     15375     15374     15372     15375     15375     15377     15378
     15375     15383     15384     15375     15383     15385     15375     15383     15386
     15376     15375     15377     15376     15375     15383     15377     15375     15383
     15377     15378     15379     15377     15378     15380     15378     15380     15381
     15378     15380     15382     15378     15380     15392     15379     15378     15380
     15380     15392     15393     15380     15392     15394     15380     15392     15395
     15381     15380     15382     15381     15380     15392     15382     15380     15392
     15383     15386     15387     15384     15383     15385     15384     15383     15386
     15385     15383     15386     15386     15387     15388     15386     15387     15389
     15387     15389     15390     15387     15389     15391     15387     15389     15439
     15388     15387     15389     15389     15439     15440     15389     15439     15441
     15389     15439     15442     15390     15389     15391     15390     15389     15439
     15391     15389     15439     15392     15395     15396     15392     15395     15397
     15392     15395     15398     15393     15392     15394     15393     15392     15395
     15394     15392     15395     15395     15398     15399     15395     15398     15400
     15395     15398     15401     15396     15395     15397     15396     15395     15398
     15397     15395     15398     15398     15401     15402     15398     15401     15403
     15398     15401     15404     15399     15398     15400     15399     15398     15401
     15400     15398     15401     15401     15404     15405     15401     15404     15406
     15401     15404     15407     15402     15401     15403     15402     15401     15404
     15403     15401     15404     15404     15407     15408     15404     15407     15409
     15404     15407     15410     15405     15404     15406     15405     15404     15407
     15406     15404     15407     15407     15410     15411     15407     15410     15412
     15408     15407     15409     15408     15407     15410     15409     15407     15410
     15410     15412     15413     15410     15412     15414     15411     15410     15412
     15412     15414     15415     15412     15414     15416     15412     15414     15417
     15413     15412     15414     15414     15417     15418     15414     15417     15419
     15414     15417     15420     15415     15414     15416     15415     15414     15417
     15416     15414     15417     15417     15420     15421     15417     15420     15422
     15417     15420     15423     15418     15417     15419     15418     15417     15420
     15419     15417     15420     15420     15423     15424     15420     15423     15425
     15420     15423     15426     15421     15420     15422     15421     15420     15423
     15422     15420     15423     15423     15426     15427     15423     15426     15428
     15423     15426     15429     15424     15423     15425     15424     15423     15426
     15425     15423     15426     15426     15429     15430     15426     15429     15431
     15426     15429     15432     15427     15426     15428     15427     15426     15429
     15428     15426     15429     15429     15432     15433     15429     15432     15434
     15429     15432     15435     15430     15429     15431     15430     15429     15432
     15431     15429     15432     15432     15435     15436     15432     15435     15437
     15432     15435     15438     15433     15432     15434     15433     15432     15435
     15434     15432     15435     15436     15435     15437     15436     15435     15438
     15437     15435     15438     15439     15442     15443     15439     15442     15444
     15439     15442     15445     15440     15439     15441     15440     15439     15442
     15441     15439     15442     15442     15445     15446     15442     15445     15447
     15442     15445     15448     15443     15442     15444     15443     15442     15445
     15444     15442     15445     15445     15448     15449     15445     15448     15450
     15445     15448     15451     15446     15445     15447     15446     15445     15448
     15447     15445     15448     15448     15451     15452     15448     15451     15453
     15448     15451     15454     15449     15448     15450     15449     15448     15451
     15450     15448     15451     15451     15454     15455     15451     15454     15456
     15451     15454     15457     15452     15451     15453     15452     15451     15454
     15453     15451     15454     15454     15457     15458     15454     15457     15459
     15455     15454     15456     15455     15454     15457     15456     15454     15457
     15457     15459     15460     15457     15459     15461     15458     15457     15459
     15459     15461     15462     15459     15461     15463     15459     15461     15464
     15460     15459     15461     15461     15464     15465     15461     15464     15466
     15461     15464     15467     15462     15461     15463     15462     15461     15464
     15463     15461     15464     15464     15467     15468     15464     15467     15469
     15464     15467     15470     15465     15464     15466     15465     15464     15467
     15466     15464     15467     15467     15470     15471     15467     15470     15472
     15467     15470     15473     15468     15467     15469     15468     15467     15470
     15469     15467     15470     15470     15473     15474     15470     15473     15475
     15470     15473     15476     15471     15470     15472     15471     15470     15473
     15472     15470     15473     15473     15476     15477     15473     15476     15478
     15473     15476     15479     15474     15473     15475     15474     15473     15476
     15475     15473     15476     15476     15479     15480     15476     15479     15481
     15476     15479     15482     15477     15476     15478     15477     15476     15479
     15478     15476     15479     15479     15482     15483     15479     15482     15484
     15479     15482     15485     15480     15479     15481     15480     15479     15482
     15481     15479     15482     15483     15482     15484     15483     15482     15485
     15484     15482     15485     15486     15490     15491     15486     15490     15492
     15486     15490     15493     15487     15486     15488     15487     15486     15489
     15487     15486     15490     15488     15486     15489     15488     15486     15490
     15489     15486     15490     15490     15493     15494     15490     15493     15495
     15490     15493     15500     15491     15490     15492     15491     15490     15493
     15492     15490     15493     15493     15500     15496     15494     15493     15495
     15494     15493     15500     15495     15493     15500     15496     15499     15501
     15497     15496     15498     15497     15496     15499     15497     15496     15500
     15498     15496     15499     15498     15496     15500     15499     15496     15500
     15499     15501     15502     15499     15501     15503     15499     15501     15504
     15501     15504     15505     15501     15504     15506     15501     15504     15512
     15502     15501     15503     15502     15501     15504     15503     15501     15504
     15504     15506     15507     15504     15512     15513     15504     15512     15514
     15504     15512     15515     15505     15504     15506     15505     15504     15512
     15506     15504     15512     15506     15507     15508     15506     15507     15509
     15507     15509     15510     15507     15509     15511     15507     15509     15521
     15508     15507     15509     15509     15521     15522     15509     15521     15523
     15509     15521     15524     15510     15509     15511     15510     15509     15521
     15511     15509     15521     15512     15515     15516     15513     15512     15514
     15513     15512     15515     15514     15512     15515     15515     15516     15517
     15515     15516     15518     15516     15518     15519     15516     15518     15520
     15516     15518     15568     15517     15516     15518     15518     15568     15569
     15518     15568     15570     15518     15568     15571     15519     15518     15520
     15519     15518     15568     15520     15518     15568     15521     15524     15525
     15521     15524     15526     15521     15524     15527     15522     15521     15523
     15522     15521     15524     15523     15521     15524     15524     15527     15528
     15524     15527     15529     15524     15527     15530     15525     15524     15526
     15525     15524     15527     15526     15524     15527     15527     15530     15531
     15527     15530     15532     15527     15530     15533     15528     15527     15529
     15528     15527     15530     15529     15527     15530     15530     15533     15534
     15530     15533     15535     15530     15533     15536     15531     15530     15532
     15531     15530     15533     15532     15530     15533     15533     15536     15537
     15533     15536     15538     15533     15536     15539     15534     15533     15535
     15534     15533     15536     15535     15533     15536     15536     15539     15540
     15536     15539     15541     15537     15536     15538     15537     15536     15539
     15538     15536     15539     15539     15541     15542     15539     15541     15543
     15540     15539     15541     15541     15543     15544     15541     15543     15545
     15541     15543     15546     15542     15541     15543     15543     15546     15547
     15543     15546     15548     15543     15546     15549     15544     15543     15545
     15544     15543     15546     15545     15543     15546     15546     15549     15550
     15546     15549     15551     15546     15549     15552     15547     15546     15548
     15547     15546     15549     15548     15546     15549     15549     15552     15553
     15549     15552     15554     15549     15552     15555     15550     15549     15551
     15550     15549     15552     15551     15549     15552     15552     15555     15556
     15552     15555     15557     15552     15555     15558     15553     15552     15554
     15553     15552     15555     15554     15552     15555     15555     15558     15559
     15555     15558     15560     15555     15558     15561     15556     15555     15557
     15556     15555     15558     15557     15555     15558     15558     15561     15562
     15558     15561     15563     15558     15561     15564     15559     15558     15560
     15559     15558     15561     15560     15558     15561     15561     15564     15565
     15561     15564     15566     15561     15564     15567     15562     15561     15563
     15562     15561     15564     15563     15561     15564     15565     15564     15566
     15565     15564     15567     15566     15564     15567     15568     15571     15572
     15568     15571     15573     15568     15571     15574     15569     15568     15570
     15569     15568     15571     15570     15568     15571     15571     15574     15575
     15571     15574     15576     15571     15574     15577     15572     15571     15573
     15572     15571     15574     15573     15571     15574     15574     15577     15578
     15574     15577     15579     15574     15577     15580     15575     15574     15576
     15575     15574     15577     15576     15574     15577     15577     15580     15581
     15577     15580     15582     15577     15580     15583     15578     15577     15579
     15578     15577     15580     15579     15577     15580     15580     15583     15584
     15580     15583     15585     15580     15583     15586     15581     15580     15582
     15581     15580     15583     15582     15580     15583     15583     15586     15587
     15583     15586     15588     15584     15583     15585     15584     15583     15586
     15585     15583     15586     15586     15588     15589     15586     15588     15590
     15587     15586     15588     15588     15590     15591     15588     15590     15592
     15588     15590     15593     15589     15588     15590     15590     15593     15594
     15590     15593     15595     15590     15593     15596     15591     15590     15592
     15591     15590     15593     15592     15590     15593     15593     15596     15597
     15593     15596     15598     15593     15596     15599     15594     15593     15595
     15594     15593     15596     15595     15593     15596     15596     15599     15600
     15596     15599     15601     15596     15599     15602     15597     15596     15598
     15597     15596     15599     15598     15596     15599     15599     15602     15603
     15599     15602     15604     15599     15602     15605     15600     15599     15601
     15600     15599     15602     15601     15599     15602     15602     15605     15606
     15602     15605     15607     15602     15605     15608     15603     15602     15604
     15603     15602     15605     15604     15602     15605     15605     15608     15609
     15605     15608     15610     15605     15608     15611     15606     15605     15607
     15606     15605     15608     15607     15605     15608     15608     15611     15612
     15608     15611     15613     15608     15611     15614     15609     15608     15610
     15609     15608     15611     15610     15608     15611     15612     15611     15613
     15612     15611     15614     15613     15611     15614     15615     15616     15617
     15615     15616     15618     15615     15616     15619     15615     15620     15621
     15615     15620     15622     15615     15620     15623     15615     15624     15625
     15615     15624     15626     15615     15624     15627     15615     15628     15629
     15615     15628     15630     15615     15628     15631     15616     15615     15620
     15616     15615     15624     15616     15615     15628     15617     15616     15618
     15617     15616     15619     15618     15616     15619     15620     15615     15624
     15620     15615     15628     15621     15620     15622     15621     15620     15623
     15622     15620     15623     15624     15615     15628     15625     15624     15626
     15625     15624     15627     15626     15624     15627     15628     15631     15632
     15628     15631     15633     15628     15631     15638     15629     15628     15630
     15629     15628     15631     15630     15628     15631     15631     15638     15634
     15632     15631     15633     15632     15631     15638     15633     15631     15638
     15634     15637     15639     15635     15634     15636     15635     15634     15637
     15635     15634     15638     15636     15634     15637     15636     15634     15638
     15637     15634     15638     15637     15639     15640     15637     15639     15641
     15637     15639     15644     15639     15644     15642     15639     15644     15645
     15639     15644     15646     15640     15639     15641     15640     15639     15644
     15641     15639     15644     15642     15644     15645     15642     15644     15646
     15642     15694     15695     15642     15694     15696     15643     15642     15644
     15643     15642     15694     15644     15642     15694     15644     15646     15647
     15644     15646     15648     15644     15646     15650     15645     15644     15646
     15646     15648     15649     15646     15650     15651     15646     15650     15652
     15647     15646     15648     15647     15646     15650     15648     15646     15650
     15650     15652     15653     15650     15652     15654     15651     15650     15652
     15652     15654     15655     15652     15654     15656     15652     15654     15657
     15653     15652     15654     15654     15657     15658     15654     15657     15659
     15654     15657     15660     15655     15654     15656     15655     15654     15657
     15656     15654     15657     15657     15660     15661     15657     15660     15662
     15657     15660     15663     15658     15657     15659     15658     15657     15660
     15659     15657     15660     15660     15663     15664     15660     15663     15665
     15660     15663     15666     15661     15660     15662     15661     15660     15663
     15662     15660     15663     15663     15666     15667     15663     15666     15668
     15663     15666     15669     15664     15663     15665     15664     15663     15666
     15665     15663     15666     15666     15669     15670     15666     15669     15671
     15666     15669     15672     15667     15666     15668     15667     15666     15669
     15668     15666     15669     15669     15672     15673     15669     15672     15674
     15669     15672     15675     15670     15669     15671     15670     15669     15672
     15671     15669     15672     15672     15675     15676     15672     15675     15677
     15672     15675     15678     15673     15672     15674     15673     15672     15675
     15674     15672     15675     15675     15678     15679     15675     15678     15680
     15675     15678     15681     15676     15675     15677     15676     15675     15678
     15677     15675     15678     15678     15681     15682     15678     15681     15683
     15678     15681     15684     15679     15678     15680     15679     15678     15681
     15680     15678     15681     15681     15684     15685     15681     15684     15686
     15681     15684     15687     15682     15681     15683     15682     15681     15684
     15683     15681     15684     15684     15687     15688     15684     15687     15689
     15684     15687     15690     15685     15684     15686     15685     15684     15687
     15686     15684     15687     15687     15690     15691     15687     15690     15692
     15687     15690     15693     15688     15687     15689     15688     15687     15690
     15689     15687     15690     15691     15690     15692     15691     15690     15693
     15692     15690     15693     15694     15696     15697     15694     15696     15698
     15694     15696     15699     15695     15694     15696     15696     15699     15700
     15696     15699     15701     15696     15699     15702     15697     15696     15698
     15697     15696     15699     15698     15696     15699     15699     15702     15703
     15699     15702     15704     15699     15702     15705     15700     15699     15701
     15700     15699     15702     15701     15699     15702     15702     15705     15706
     15702     15705     15707     15702     15705     15708     15703     15702     15704
     15703     15702     15705     15704     15702     15705     15705     15708     15709
     15705     15708     15710     15705     15708     15711     15706     15705     15707
     15706     15705     15708     15707     15705     15708     15708     15711     15712
     15708     15711     15713     15708     15711     15714     15709     15708     15710
     15709     15708     15711     15710     15708     15711     15711     15714     15715
     15711     15714     15716     15711     15714     15717     15712     15711     15713
     15712     15711     15714     15713     15711     15714     15714     15717     15718
     15714     15717     15719     15714     15717     15720     15715     15714     15716
     15715     15714     15717     15716     15714     15717     15717     15720     15721
     15717     15720     15722     15717     15720     15723     15718     15717     15719
     15718     15717     15720     15719     15717     15720     15720     15723     15724
     15720     15723     15725     15720     15723     15726     15721     15720     15722
     15721     15720     15723     15722     15720     15723     15723     15726     15727
     15723     15726     15728     15723     15726     15729     15724     15723     15725
     15724     15723     15726     15725     15723     15726     15726     15729     15730
     15726     15729     15731     15726     15729     15732     15727     15726     15728
     15727     15726     15729     15728     15726     15729     15729     15732     15733
     15729     15732     15734     15729     15732     15735     15730     15729     15731
     15730     15729     15732     15731     15729     15732     15732     15735     15736
     15732     15735     15737     15732     15735     15738     15733     15732     15734
     15733     15732     15735     15734     15732     15735     15735     15738     15739
     15735     15738     15740     15735     15738     15741     15736     15735     15737
     15736     15735     15738     15737     15735     15738     15738     15741     15742
     15738     15741     15743     15738     15741     15744     15739     15738     15740
     15739     15738     15741     15740     15738     15741     15741     15744     15745
     15741     15744     15746     15741     15744     15747     15742     15741     15743
     15742     15741     15744     15743     15741     15744     15744     15747     15748
     15744     15747     15749     15744     15747     15750     15745     15744     15746
     15745     15744     15747     15746     15744     15747     15747     15750     15751
     15747     15750     15752     15747     15750     15753     15748     15747     15749
     15748     15747     15750     15749     15747     15750     15750     15753     15754
     15750     15753     15755     15750     15753     15756     15751     15750     15752
     15751     15750     15753     15752     15750     15753     15753     15756     15757
     15753     15756     15758     15753     15756     15759     15754     15753     15755
     15754     15753     15756     15755     15753     15756     15756     15759     15760
     15756     15759     15761     15756     15759     15762     15757     15756     15758
     15757     15756     15759     15758     15756     15759     15760     15759     15761
     15760     15759     15762     15761     15759     15762     15763     15764     15765
     15763     15764     15766     15763     15764     15767     15763     15768     15769
     15763     15768     15770     15763     15768     15771     15763     15772     15773
     15763     15772     15774     15763     15772     15775     15763     15776     15777
     15763     15776     15778     15763     15776     15779     15764     15763     15768
     15764     15763     15772     15764     15763     15776     15765     15764     15766
     15765     15764     15767     15766     15764     15767     15768     15763     15772
     15768     15763     15776     15769     15768     15770     15769     15768     15771
     15770     15768     15771     15772     15763     15776     15773     15772     15774
     15773     15772     15775     15774     15772     15775     15776     15779     15780
     15776     15779     15781     15776     15779     15786     15777     15776     15778
     15777     15776     15779     15778     15776     15779     15779     15786     15782
     15780     15779     15781     15780     15779     15786     15781     15779     15786
     15782     15785     15787     15783     15782     15784     15783     15782     15785
     15783     15782     15786     15784     15782     15785     15784     15782     15786
     15785     15782     15786     15785     15787     15788     15785     15787     15789
     15785     15787     15792     15787     15792     15790     15787     15792     15793
     15787     15792     15794     15788     15787     15789     15788     15787     15792
     15789     15787     15792     15790     15792     15793     15790     15792     15794
     15790     15842     15843     15790     15842     15844     15791     15790     15792
     15791     15790     15842     15792     15790     15842     15792     15794     15795
     15792     15794     15796     15792     15794     15798     15793     15792     15794
     15794     15796     15797     15794     15798     15799     15794     15798     15800
     15795     15794     15796     15795     15794     15798     15796     15794     15798
     15798     15800     15801     15798     15800     15802     15799     15798     15800
     15800     15802     15803     15800     15802     15804     15800     15802     15805
     15801     15800     15802     15802     15805     15806     15802     15805     15807
     15802     15805     15808     15803     15802     15804     15803     15802     15805
     15804     15802     15805     15805     15808     15809     15805     15808     15810
     15805     15808     15811     15806     15805     15807     15806     15805     15808
     15807     15805     15808     15808     15811     15812     15808     15811     15813
     15808     15811     15814     15809     15808     15810     15809     15808     15811
     15810     15808     15811     15811     15814     15815     15811     15814     15816
     15811     15814     15817     15812     15811     15813     15812     15811     15814
     15813     15811     15814     15814     15817     15818     15814     15817     15819
     15814     15817     15820     15815     15814     15816     15815     15814     15817
     15816     15814     15817     15817     15820     15821     15817     15820     15822
     15817     15820     15823     15818     15817     15819     15818     15817     15820
     15819     15817     15820     15820     15823     15824     15820     15823     15825
     15820     15823     15826     15821     15820     15822     15821     15820     15823
     15822     15820     15823     15823     15826     15827     15823     15826     15828
     15823     15826     15829     15824     15823     15825     15824     15823     15826
     15825     15823     15826     15826     15829     15830     15826     15829     15831
     15826     15829     15832     15827     15826     15828     15827     15826     15829
     15828     15826     15829     15829     15832     15833     15829     15832     15834
     15829     15832     15835     15830     15829     15831     15830     15829     15832
     15831     15829     15832     15832     15835     15836     15832     15835     15837
     15832     15835     15838     15833     15832     15834     15833     15832     15835
     15834     15832     15835     15835     15838     15839     15835     15838     15840
     15835     15838     15841     15836     15835     15837     15836     15835     15838
     15837     15835     15838     15839     15838     15840     15839     15838     15841
     15840     15838     15841     15842     15844     15845     15842     15844     15846
     15842     15844     15847     15843     15842     15844     15844     15847     15848
     15844     15847     15849     15844     15847     15850     15845     15844     15846
     15845     15844     15847     15846     15844     15847     15847     15850     15851
     15847     15850     15852     15847     15850     15853     15848     15847     15849
     15848     15847     15850     15849     15847     15850     15850     15853     15854
     15850     15853     15855     15850     15853     15856     15851     15850     15852
     15851     15850     15853     15852     15850     15853     15853     15856     15857
     15853     15856     15858     15853     15856     15859     15854     15853     15855
     15854     15853     15856     15855     15853     15856     15856     15859     15860
     15856     15859     15861     15856     15859     15862     15857     15856     15858
     15857     15856     15859     15858     15856     15859     15859     15862     15863
     15859     15862     15864     15859     15862     15865     15860     15859     15861
     15860     15859     15862     15861     15859     15862     15862     15865     15866
     15862     15865     15867     15862     15865     15868     15863     15862     15864
     15863     15862     15865     15864     15862     15865     15865     15868     15869
     15865     15868     15870     15865     15868     15871     15866     15865     15867
     15866     15865     15868     15867     15865     15868     15868     15871     15872
     15868     15871     15873     15868     15871     15874     15869     15868     15870
     15869     15868     15871     15870     15868     15871     15871     15874     15875
     15871     15874     15876     15871     15874     15877     15872     15871     15873
     15872     15871     15874     15873     15871     15874     15874     15877     15878
     15874     15877     15879     15874     15877     15880     15875     15874     15876
     15875     15874     15877     15876     15874     15877     15877     15880     15881
     15877     15880     15882     15877     15880     15883     15878     15877     15879
     15878     15877     15880     15879     15877     15880     15880     15883     15884
     15880     15883     15885     15880     15883     15886     15881     15880     15882
     15881     15880     15883     15882     15880     15883     15883     15886     15887
     15883     15886     15888     15883     15886     15889     15884     15883     15885
     15884     15883     15886     15885     15883     15886     15886     15889     15890
     15886     15889     15891     15886     15889     15892     15887     15886     15888
     15887     15886     15889     15888     15886     15889     15889     15892     15893
     15889     15892     15894     15889     15892     15895     15890     15889     15891
     15890     15889     15892     15891     15889     15892     15892     15895     15896
     15892     15895     15897     15892     15895     15898     15893     15892     15894
     15893     15892     15895     15894     15892     15895     15895     15898     15899
     15895     15898     15900     15895     15898     15901     15896     15895     15897
     15896     15895     15898     15897     15895     15898     15898     15901     15902
     15898     15901     15903     15898     15901     15904     15899     15898     15900
     15899     15898     15901     15900     15898     15901     15901     15904     15905
     15901     15904     15906     15901     15904     15907     15902     15901     15903
     15902     15901     15904     15903     15901     15904     15904     15907     15908
     15904     15907     15909     15904     15907     15910     15905     15904     15906
     15905     15904     15907     15906     15904     15907     15908     15907     15909
     15908     15907     15910     15909     15907     15910     15911     15912     15913
     15911     15912     15914     15911     15912     15927     15911     15915     15916
     15911     15915     15917     15911     15915     15918     15911     15919     15920
     15911     15919     15921     15911     15919     15922     15911     15923     15924
     15911     15923     15925     15911     15923     15926     15912     15911     15915
     15912     15911     15919     15912     15911     15923     15912     15927     15928
     15912     15927     15929     15912     15927     15933     15913     15912     15914
     15913     15912     15927     15914     15912     15927     15915     15911     15919
     15915     15911     15923     15916     15915     15917     15916     15915     15918
     15917     15915     15918     15919     15911     15923     15920     15919     15921
     15920     15919     15922     15921     15919     15922     15924     15923     15925
     15924     15923     15926     15925     15923     15926     15927     15933     15930
     15928     15927     15929     15928     15927     15933     15929     15927     15933
     15930     15934     15935     15931     15930     15932     15931     15930     15933
     15931     15930     15934     15932     15930     15933     15932     15930     15934
     15933     15930     15934     15934     15935     15936     15934     15935     15937
     15934     15935     15938     15935     15938     15939     15935     15938     15940
     15935     15938     15946     15936     15935     15937     15936     15935     15938
     15937     15935     15938     15938     15940     15941     15938     15946     15947
     15938     15946     15948     15938     15946     15949     15939     15938     15940
     15939     15938     15946     15940     15938     15946     15940     15941     15942
     15940     15941     15943     15941     15943     15944     15941     15943     15945
     15941     15943     15955     15942     15941     15943     15943     15955     15956
     15943     15955     15957     15943     15955     15958     15944     15943     15945
     15944     15943     15955     15945     15943     15955     15946     15949     15950
     15947     15946     15948     15947     15946     15949     15948     15946     15949
     15949     15950     15951     15949     15950     15952     15950     15952     15953
     15950     15952     15954     15950     15952     16002     15951     15950     15952
     15952     16002     16003     15952     16002     16004     15952     16002     16005
     15953     15952     15954     15953     15952     16002     15954     15952     16002
     15955     15958     15959     15955     15958     15960     15955     15958     15961
     15956     15955     15957     15956     15955     15958     15957     15955     15958
     15958     15961     15962     15958     15961     15963     15958     15961     15964
     15959     15958     15960     15959     15958     15961     15960     15958     15961
     15961     15964     15965     15961     15964     15966     15961     15964     15967
     15962     15961     15963     15962     15961     15964     15963     15961     15964
     15964     15967     15968     15964     15967     15969     15964     15967     15970
     15965     15964     15966     15965     15964     15967     15966     15964     15967
     15967     15970     15971     15967     15970     15972     15967     15970     15973
     15968     15967     15969     15968     15967     15970     15969     15967     15970
     15970     15973     15974     15970     15973     15975     15971     15970     15972
     15971     15970     15973     15972     15970     15973     15973     15975     15976
     15973     15975     15977     15974     15973     15975     15975     15977     15978
     15975     15977     15979     15975     15977     15980     15976     15975     15977
     15977     15980     15981     15977     15980     15982     15977     15980     15983
     15978     15977     15979     15978     15977     15980     15979     15977     15980
     15980     15983     15984     15980     15983     15985     15980     15983     15986
     15981     15980     15982     15981     15980     15983     15982     15980     15983
     15983     15986     15987     15983     15986     15988     15983     15986     15989
     15984     15983     15985     15984     15983     15986     15985     15983     15986
     15986     15989     15990     15986     15989     15991     15986     15989     15992
     15987     15986     15988     15987     15986     15989     15988     15986     15989
     15989     15992     15993     15989     15992     15994     15989     15992     15995
     15990     15989     15991     15990     15989     15992     15991     15989     15992
     15992     15995     15996     15992     15995     15997     15992     15995     15998
     15993     15992     15994     15993     15992     15995     15994     15992     15995
     15995     15998     15999     15995     15998     16000     15995     15998     16001
     15996     15995     15997     15996     15995     15998     15997     15995     15998
     15999     15998     16000     15999     15998     16001     16000     15998     16001
     16002     16005     16006     16002     16005     16007     16002     16005     16008
     16003     16002     16004     16003     16002     16005     16004     16002     16005
     16005     16008     16009     16005     16008     16010     16005     16008     16011
     16006     16005     16007     16006     16005     16008     16007     16005     16008
     16008     16011     16012     16008     16011     16013     16008     16011     16014
     16009     16008     16010     16009     16008     16011     16010     16008     16011
     16011     16014     16015     16011     16014     16016     16011     16014     16017
     16012     16011     16013     16012     16011     16014     16013     16011     16014
     16014     16017     16018     16014     16017     16019     16014     16017     16020
     16015     16014     16016     16015     16014     16017     16016     16014     16017
     16017     16020     16021     16017     16020     16022     16018     16017     16019
     16018     16017     16020     16019     16017     16020     16020     16022     16023
     16020     16022     16024     16021     16020     16022     16022     16024     16025
     16022     16024     16026     16022     16024     16027     16023     16022     16024
     16024     16027     16028     16024     16027     16029     16024     16027     16030
     16025     16024     16026     16025     16024     16027     16026     16024     16027
     16027     16030     16031     16027     16030     16032     16027     16030     16033
     16028     16027     16029     16028     16027     16030     16029     16027     16030
     16030     16033     16034     16030     16033     16035     16030     16033     16036
     16031     16030     16032     16031     16030     16033     16032     16030     16033
     16033     16036     16037     16033     16036     16038     16033     16036     16039
     16034     16033     16035     16034     16033     16036     16035     16033     16036
     16036     16039     16040     16036     16039     16041     16036     16039     16042
     16037     16036     16038     16037     16036     16039     16038     16036     16039
     16039     16042     16043     16039     16042     16044     16039     16042     16045
     16040     16039     16041     16040     16039     16042     16041     16039     16042
     16042     16045     16046     16042     16045     16047     16042     16045     16048
     16043     16042     16044     16043     16042     16045     16044     16042     16045
     16046     16045     16047     16046     16045     16048     16047     16045     16048
     16049     16050     16051     16049     16050     16052     16049     16050     16065
     16049     16053     16054     16049     16053     16055     16049     16053     16056
     16049     16057     16058     16049     16057     16059     16049     16057     16060
     16049     16061     16062     16049     16061     16063     16049     16061     16064
     16050     16049     16053     16050     16049     16057     16050     16049     16061
     16050     16065     16066     16050     16065     16067     16050     16065     16071
     16051     16050     16052     16051     16050     16065     16052     16050     16065
     16053     16049     16057     16053     16049     16061     16054     16053     16055
     16054     16053     16056     16055     16053     16056     16057     16049     16061
     16058     16057     16059     16058     16057     16060     16059     16057     16060
     16062     16061     16063     16062     16061     16064     16063     16061     16064
     16065     16071     16068     16066     16065     16067     16066     16065     16071
     16067     16065     16071     16068     16072     16073     16069     16068     16070
     16069     16068     16071     16069     16068     16072     16070     16068     16071
     16070     16068     16072     16071     16068     16072     16072     16073     16074
     16072     16073     16075     16072     16073     16076     16073     16076     16077
     16073     16076     16078     16073     16076     16084     16074     16073     16075
     16074     16073     16076     16075     16073     16076     16076     16078     16079
     16076     16084     16085     16076     16084     16086     16076     16084     16087
     16077     16076     16078     16077     16076     16084     16078     16076     16084
     16078     16079     16080     16078     16079     16081     16079     16081     16082
     16079     16081     16083     16079     16081     16093     16080     16079     16081
     16081     16093     16094     16081     16093     16095     16081     16093     16096
     16082     16081     16083     16082     16081     16093     16083     16081     16093
     16084     16087     16088     16085     16084     16086     16085     16084     16087
     16086     16084     16087     16087     16088     16089     16087     16088     16090
     16088     16090     16091     16088     16090     16092     16088     16090     16140
     16089     16088     16090     16090     16140     16141     16090     16140     16142
     16090     16140     16143     16091     16090     16092     16091     16090     16140
     16092     16090     16140     16093     16096     16097     16093     16096     16098
     16093     16096     16099     16094     16093     16095     16094     16093     16096
     16095     16093     16096     16096     16099     16100     16096     16099     16101
     16096     16099     16102     16097     16096     16098     16097     16096     16099
     16098     16096     16099     16099     16102     16103     16099     16102     16104
     16099     16102     16105     16100     16099     16101     16100     16099     16102
     16101     16099     16102     16102     16105     16106     16102     16105     16107
     16102     16105     16108     16103     16102     16104     16103     16102     16105
     16104     16102     16105     16105     16108     16109     16105     16108     16110
     16105     16108     16111     16106     16105     16107     16106     16105     16108
     16107     16105     16108     16108     16111     16112     16108     16111     16113
     16109     16108     16110     16109     16108     16111     16110     16108     16111
     16111     16113     16114     16111     16113     16115     16112     16111     16113
     16113     16115     16116     16113     16115     16117     16113     16115     16118
     16114     16113     16115     16115     16118     16119     16115     16118     16120
     16115     16118     16121     16116     16115     16117     16116     16115     16118
     16117     16115     16118     16118     16121     16122     16118     16121     16123
     16118     16121     16124     16119     16118     16120     16119     16118     16121
     16120     16118     16121     16121     16124     16125     16121     16124     16126
     16121     16124     16127     16122     16121     16123     16122     16121     16124
     16123     16121     16124     16124     16127     16128     16124     16127     16129
     16124     16127     16130     16125     16124     16126     16125     16124     16127
     16126     16124     16127     16127     16130     16131     16127     16130     16132
     16127     16130     16133     16128     16127     16129     16128     16127     16130
     16129     16127     16130     16130     16133     16134     16130     16133     16135
     16130     16133     16136     16131     16130     16132     16131     16130     16133
     16132     16130     16133     16133     16136     16137     16133     16136     16138
     16133     16136     16139     16134     16133     16135     16134     16133     16136
     16135     16133     16136     16137     16136     16138     16137     16136     16139
     16138     16136     16139     16140     16143     16144     16140     16143     16145
     16140     16143     16146     16141     16140     16142     16141     16140     16143
     16142     16140     16143     16143     16146     16147     16143     16146     16148
     16143     16146     16149     16144     16143     16145     16144     16143     16146
     16145     16143     16146     16146     16149     16150     16146     16149     16151
     16146     16149     16152     16147     16146     16148     16147     16146     16149
     16148     16146     16149     16149     16152     16153     16149     16152     16154
     16149     16152     16155     16150     16149     16151     16150     16149     16152
     16151     16149     16152     16152     16155     16156     16152     16155     16157
     16152     16155     16158     16153     16152     16154     16153     16152     16155
     16154     16152     16155     16155     16158     16159     16155     16158     16160
     16156     16155     16157     16156     16155     16158     16157     16155     16158
     16158     16160     16161     16158     16160     16162     16159     16158     16160
     16160     16162     16163     16160     16162     16164     16160     16162     16165
     16161     16160     16162     16162     16165     16166     16162     16165     16167
     16162     16165     16168     16163     16162     16164     16163     16162     16165
     16164     16162     16165     16165     16168     16169     16165     16168     16170
     16165     16168     16171     16166     16165     16167     16166     16165     16168
     16167     16165     16168     16168     16171     16172     16168     16171     16173
     16168     16171     16174     16169     16168     16170     16169     16168     16171
     16170     16168     16171     16171     16174     16175     16171     16174     16176
     16171     16174     16177     16172     16171     16173     16172     16171     16174
     16173     16171     16174     16174     16177     16178     16174     16177     16179
     16174     16177     16180     16175     16174     16176     16175     16174     16177
     16176     16174     16177     16177     16180     16181     16177     16180     16182
     16177     16180     16183     16178     16177     16179     16178     16177     16180
     16179     16177     16180     16180     16183     16184     16180     16183     16185
     16180     16183     16186     16181     16180     16182     16181     16180     16183
     16182     16180     16183     16184     16183     16185     16184     16183     16186
     16185     16183     16186     16187     16191     16192     16187     16191     16193
     16187     16191     16194     16188     16187     16189     16188     16187     16190
     16188     16187     16191     16189     16187     16190     16189     16187     16191
     16190     16187     16191     16191     16194     16195     16191     16194     16196
     16191     16194     16201     16192     16191     16193     16192     16191     16194
     16193     16191     16194     16194     16201     16197     16195     16194     16196
     16195     16194     16201     16196     16194     16201     16197     16200     16202
     16198     16197     16199     16198     16197     16200     16198     16197     16201
     16199     16197     16200     16199     16197     16201     16200     16197     16201
     16200     16202     16203     16200     16202     16204     16200     16202     16205
     16202     16205     16206     16202     16205     16207     16202     16205     16213
     16203     16202     16204     16203     16202     16205     16204     16202     16205
     16205     16207     16208     16205     16213     16214     16205     16213     16215
     16205     16213     16216     16206     16205     16207     16206     16205     16213
     16207     16205     16213     16207     16208     16209     16207     16208     16210
     16208     16210     16211     16208     16210     16212     16208     16210     16222
     16209     16208     16210     16210     16222     16223     16210     16222     16224
     16210     16222     16225     16211     16210     16212     16211     16210     16222
     16212     16210     16222     16213     16216     16217     16214     16213     16215
     16214     16213     16216     16215     16213     16216     16216     16217     16218
     16216     16217     16219     16217     16219     16220     16217     16219     16221
     16217     16219     16269     16218     16217     16219     16219     16269     16270
     16219     16269     16271     16219     16269     16272     16220     16219     16221
     16220     16219     16269     16221     16219     16269     16222     16225     16226
     16222     16225     16227     16222     16225     16228     16223     16222     16224
     16223     16222     16225     16224     16222     16225     16225     16228     16229
     16225     16228     16230     16225     16228     16231     16226     16225     16227
     16226     16225     16228     16227     16225     16228     16228     16231     16232
     16228     16231     16233     16228     16231     16234     16229     16228     16230
     16229     16228     16231     16230     16228     16231     16231     16234     16235
     16231     16234     16236     16231     16234     16237     16232     16231     16233
     16232     16231     16234     16233     16231     16234     16234     16237     16238
     16234     16237     16239     16234     16237     16240     16235     16234     16236
     16235     16234     16237     16236     16234     16237     16237     16240     16241
     16237     16240     16242     16238     16237     16239     16238     16237     16240
     16239     16237     16240     16240     16242     16243     16240     16242     16244
     16241     16240     16242     16242     16244     16245     16242     16244     16246
     16242     16244     16247     16243     16242     16244     16244     16247     16248
     16244     16247     16249     16244     16247     16250     16245     16244     16246
     16245     16244     16247     16246     16244     16247     16247     16250     16251
     16247     16250     16252     16247     16250     16253     16248     16247     16249
     16248     16247     16250     16249     16247     16250     16250     16253     16254
     16250     16253     16255     16250     16253     16256     16251     16250     16252
     16251     16250     16253     16252     16250     16253     16253     16256     16257
     16253     16256     16258     16253     16256     16259     16254     16253     16255
     16254     16253     16256     16255     16253     16256     16256     16259     16260
     16256     16259     16261     16256     16259     16262     16257     16256     16258
     16257     16256     16259     16258     16256     16259     16259     16262     16263
     16259     16262     16264     16259     16262     16265     16260     16259     16261
     16260     16259     16262     16261     16259     16262     16262     16265     16266
     16262     16265     16267     16262     16265     16268     16263     16262     16264
     16263     16262     16265     16264     16262     16265     16266     16265     16267
     16266     16265     16268     16267     16265     16268     16269     16272     16273
     16269     16272     16274     16269     16272     16275     16270     16269     16271
     16270     16269     16272     16271     16269     16272     16272     16275     16276
     16272     16275     16277     16272     16275     16278     16273     16272     16274
     16273     16272     16275     16274     16272     16275     16275     16278     16279
     16275     16278     16280     16275     16278     16281     16276     16275     16277
     16276     16275     16278     16277     16275     16278     16278     16281     16282
     16278     16281     16283     16278     16281     16284     16279     16278     16280
     16279     16278     16281     16280     16278     16281     16281     16284     16285
     16281     16284     16286     16281     16284     16287     16282     16281     16283
     16282     16281     16284     16283     16281     16284     16284     16287     16288
     16284     16287     16289     16285     16284     16286     16285     16284     16287
     16286     16284     16287     16287     16289     16290     16287     16289     16291
     16288     16287     16289     16289     16291     16292     16289     16291     16293
     16289     16291     16294     16290     16289     16291     16291     16294     16295
     16291     16294     16296     16291     16294     16297     16292     16291     16293
     16292     16291     16294     16293     16291     16294     16294     16297     16298
     16294     16297     16299     16294     16297     16300     16295     16294     16296
     16295     16294     16297     16296     16294     16297     16297     16300     16301
     16297     16300     16302     16297     16300     16303     16298     16297     16299
     16298     16297     16300     16299     16297     16300     16300     16303     16304
     16300     16303     16305     16300     16303     16306     16301     16300     16302
     16301     16300     16303     16302     16300     16303     16303     16306     16307
     16303     16306     16308     16303     16306     16309     16304     16303     16305
     16304     16303     16306     16305     16303     16306     16306     16309     16310
     16306     16309     16311     16306     16309     16312     16307     16306     16308
     16307     16306     16309     16308     16306     16309     16309     16312     16313
     16309     16312     16314     16309     16312     16315     16310     16309     16311
     16310     16309     16312     16311     16309     16312     16313     16312     16314
     16313     16312     16315     16314     16312     16315     16316     16317     16318
     16316     16317     16319     16316     16317     16320     16316     16321     16322
     16316     16321     16323     16316     16321     16324     16316     16325     16326
     16316     16325     16327     16316     16325     16328     16316     16329     16330
     16316     16329     16331     16316     16329     16332     16317     16316     16321
     16317     16316     16325     16317     16316     16329     16318     16317     16319
     16318     16317     16320     16319     16317     16320     16321     16316     16325
     16321     16316     16329     16322     16321     16323     16322     16321     16324
     16323     16321     16324     16325     16316     16329     16326     16325     16327
     16326     16325     16328     16327     16325     16328     16329     16332     16333
     16329     16332     16334     16329     16332     16339     16330     16329     16331
     16330     16329     16332     16331     16329     16332     16332     16339     16335
     16333     16332     16334     16333     16332     16339     16334     16332     16339
     16335     16338     16340     16336     16335     16337     16336     16335     16338
     16336     16335     16339     16337     16335     16338     16337     16335     16339
     16338     16335     16339     16338     16340     16341     16338     16340     16342
     16338     16340     16345     16340     16345     16343     16340     16345     16346
     16340     16345     16347     16341     16340     16342     16341     16340     16345
     16342     16340     16345     16343     16345     16346     16343     16345     16347
     16343     16395     16396     16343     16395     16397     16344     16343     16345
     16344     16343     16395     16345     16343     16395     16345     16347     16348
     16345     16347     16349     16345     16347     16351     16346     16345     16347
     16347     16349     16350     16347     16351     16352     16347     16351     16353
     16348     16347     16349     16348     16347     16351     16349     16347     16351
     16351     16353     16354     16351     16353     16355     16352     16351     16353
     16353     16355     16356     16353     16355     16357     16353     16355     16358
     16354     16353     16355     16355     16358     16359     16355     16358     16360
     16355     16358     16361     16356     16355     16357     16356     16355     16358
     16357     16355     16358     16358     16361     16362     16358     16361     16363
     16358     16361     16364     16359     16358     16360     16359     16358     16361
     16360     16358     16361     16361     16364     16365     16361     16364     16366
     16361     16364     16367     16362     16361     16363     16362     16361     16364
     16363     16361     16364     16364     16367     16368     16364     16367     16369
     16364     16367     16370     16365     16364     16366     16365     16364     16367
     16366     16364     16367     16367     16370     16371     16367     16370     16372
     16367     16370     16373     16368     16367     16369     16368     16367     16370
     16369     16367     16370     16370     16373     16374     16370     16373     16375
     16370     16373     16376     16371     16370     16372     16371     16370     16373
     16372     16370     16373     16373     16376     16377     16373     16376     16378
     16373     16376     16379     16374     16373     16375     16374     16373     16376
     16375     16373     16376     16376     16379     16380     16376     16379     16381
     16376     16379     16382     16377     16376     16378     16377     16376     16379
     16378     16376     16379     16379     16382     16383     16379     16382     16384
     16379     16382     16385     16380     16379     16381     16380     16379     16382
     16381     16379     16382     16382     16385     16386     16382     16385     16387
     16382     16385     16388     16383     16382     16384     16383     16382     16385
     16384     16382     16385     16385     16388     16389     16385     16388     16390
     16385     16388     16391     16386     16385     16387     16386     16385     16388
     16387     16385     16388     16388     16391     16392     16388     16391     16393
     16388     16391     16394     16389     16388     16390     16389     16388     16391
     16390     16388     16391     16392     16391     16393     16392     16391     16394
     16393     16391     16394     16395     16397     16398     16395     16397     16399
     16395     16397     16400     16396     16395     16397     16397     16400     16401
     16397     16400     16402     16397     16400     16403     16398     16397     16399
     16398     16397     16400     16399     16397     16400     16400     16403     16404
     16400     16403     16405     16400     16403     16406     16401     16400     16402
     16401     16400     16403     16402     16400     16403     16403     16406     16407
     16403     16406     16408     16403     16406     16409     16404     16403     16405
     16404     16403     16406     16405     16403     16406     16406     16409     16410
     16406     16409     16411     16406     16409     16412     16407     16406     16408
     16407     16406     16409     16408     16406     16409     16409     16412     16413
     16409     16412     16414     16409     16412     16415     16410     16409     16411
     16410     16409     16412     16411     16409     16412     16412     16415     16416
     16412     16415     16417     16412     16415     16418     16413     16412     16414
     16413     16412     16415     16414     16412     16415     16415     16418     16419
     16415     16418     16420     16415     16418     16421     16416     16415     16417
     16416     16415     16418     16417     16415     16418     16418     16421     16422
     16418     16421     16423     16418     16421     16424     16419     16418     16420
     16419     16418     16421     16420     16418     16421     16421     16424     16425
     16421     16424     16426     16421     16424     16427     16422     16421     16423
     16422     16421     16424     16423     16421     16424     16424     16427     16428
     16424     16427     16429     16424     16427     16430     16425     16424     16426
     16425     16424     16427     16426     16424     16427     16427     16430     16431
     16427     16430     16432     16427     16430     16433     16428     16427     16429
     16428     16427     16430     16429     16427     16430     16430     16433     16434
     16430     16433     16435     16430     16433     16436     16431     16430     16432
     16431     16430     16433     16432     16430     16433     16433     16436     16437
     16433     16436     16438     16433     16436     16439     16434     16433     16435
     16434     16433     16436     16435     16433     16436     16436     16439     16440
     16436     16439     16441     16436     16439     16442     16437     16436     16438
     16437     16436     16439     16438     16436     16439     16439     16442     16443
     16439     16442     16444     16439     16442     16445     16440     16439     16441
     16440     16439     16442     16441     16439     16442     16442     16445     16446
     16442     16445     16447     16442     16445     16448     16443     16442     16444
     16443     16442     16445     16444     16442     16445     16445     16448     16449
     16445     16448     16450     16445     16448     16451     16446     16445     16447
     16446     16445     16448     16447     16445     16448     16448     16451     16452
     16448     16451     16453     16448     16451     16454     16449     16448     16450
     16449     16448     16451     16450     16448     16451     16451     16454     16455
     16451     16454     16456     16451     16454     16457     16452     16451     16453
     16452     16451     16454     16453     16451     16454     16454     16457     16458
     16454     16457     16459     16454     16457     16460     16455     16454     16456
     16455     16454     16457     16456     16454     16457     16457     16460     16461
     16457     16460     16462     16457     16460     16463     16458     16457     16459
     16458     16457     16460     16459     16457     16460     16461     16460     16462
     16461     16460     16463     16462     16460     16463     16464     16468     16469
     16464     16468     16470     16464     16468     16471     16465     16464     16466
     16465     16464     16467     16465     16464     16468     16466     16464     16467
     16466     16464     16468     16467     16464     16468     16468     16471     16472
     16468     16471     16473     16468     16471     16478     16469     16468     16470
     16469     16468     16471     16470     16468     16471     16471     16478     16474
     16472     16471     16473     16472     16471     16478     16473     16471     16478
     16474     16477     16479     16475     16474     16476     16475     16474     16477
     16475     16474     16478     16476     16474     16477     16476     16474     16478
     16477     16474     16478     16477     16479     16480     16477     16479     16481
     16477     16479     16482     16479     16482     16483     16479     16482     16484
     16479     16482     16490     16480     16479     16481     16480     16479     16482
     16481     16479     16482     16482     16484     16485     16482     16490     16491
     16482     16490     16492     16482     16490     16493     16483     16482     16484
     16483     16482     16490     16484     16482     16490     16484     16485     16486
     16484     16485     16487     16485     16487     16488     16485     16487     16489
     16485     16487     16499     16486     16485     16487     16487     16499     16500
     16487     16499     16501     16487     16499     16502     16488     16487     16489
     16488     16487     16499     16489     16487     16499     16490     16493     16494
     16491     16490     16492     16491     16490     16493     16492     16490     16493
     16493     16494     16495     16493     16494     16496     16494     16496     16497
     16494     16496     16498     16494     16496     16546     16495     16494     16496
     16496     16546     16547     16496     16546     16548     16496     16546     16549
     16497     16496     16498     16497     16496     16546     16498     16496     16546
     16499     16502     16503     16499     16502     16504     16499     16502     16505
     16500     16499     16501     16500     16499     16502     16501     16499     16502
     16502     16505     16506     16502     16505     16507     16502     16505     16508
     16503     16502     16504     16503     16502     16505     16504     16502     16505
     16505     16508     16509     16505     16508     16510     16505     16508     16511
     16506     16505     16507     16506     16505     16508     16507     16505     16508
     16508     16511     16512     16508     16511     16513     16508     16511     16514
     16509     16508     16510     16509     16508     16511     16510     16508     16511
     16511     16514     16515     16511     16514     16516     16511     16514     16517
     16512     16511     16513     16512     16511     16514     16513     16511     16514
     16514     16517     16518     16514     16517     16519     16515     16514     16516
     16515     16514     16517     16516     16514     16517     16517     16519     16520
     16517     16519     16521     16518     16517     16519     16519     16521     16522
     16519     16521     16523     16519     16521     16524     16520     16519     16521
     16521     16524     16525     16521     16524     16526     16521     16524     16527
     16522     16521     16523     16522     16521     16524     16523     16521     16524
     16524     16527     16528     16524     16527     16529     16524     16527     16530
     16525     16524     16526     16525     16524     16527     16526     16524     16527
     16527     16530     16531     16527     16530     16532     16527     16530     16533
     16528     16527     16529     16528     16527     16530     16529     16527     16530
     16530     16533     16534     16530     16533     16535     16530     16533     16536
     16531     16530     16532     16531     16530     16533     16532     16530     16533
     16533     16536     16537     16533     16536     16538     16533     16536     16539
     16534     16533     16535     16534     16533     16536     16535     16533     16536
     16536     16539     16540     16536     16539     16541     16536     16539     16542
     16537     16536     16538     16537     16536     16539     16538     16536     16539
     16539     16542     16543     16539     16542     16544     16539     16542     16545
     16540     16539     16541     16540     16539     16542     16541     16539     16542
     16543     16542     16544     16543     16542     16545     16544     16542     16545
     16546     16549     16550     16546     16549     16551     16546     16549     16552
     16547     16546     16548     16547     16546     16549     16548     16546     16549
     16549     16552     16553     16549     16552     16554     16549     16552     16555
     16550     16549     16551     16550     16549     16552     16551     16549     16552
     16552     16555     16556     16552     16555     16557     16552     16555     16558
     16553     16552     16554     16553     16552     16555     16554     16552     16555
     16555     16558     16559     16555     16558     16560     16555     16558     16561
     16556     16555     16557     16556     16555     16558     16557     16555     16558
     16558     16561     16562     16558     16561     16563     16558     16561     16564
     16559     16558     16560     16559     16558     16561     16560     16558     16561
     16561     16564     16565     16561     16564     16566     16562     16561     16563
     16562     16561     16564     16563     16561     16564     16564     16566     16567
     16564     16566     16568     16565     16564     16566     16566     16568     16569
     16566     16568     16570     16566     16568     16571     16567     16566     16568
     16568     16571     16572     16568     16571     16573     16568     16571     16574
     16569     16568     16570     16569     16568     16571     16570     16568     16571
     16571     16574     16575     16571     16574     16576     16571     16574     16577
     16572     16571     16573     16572     16571     16574     16573     16571     16574
     16574     16577     16578     16574     16577     16579     16574     16577     16580
     16575     16574     16576     16575     16574     16577     16576     16574     16577
     16577     16580     16581     16577     16580     16582     16577     16580     16583
     16578     16577     16579     16578     16577     16580     16579     16577     16580
     16580     16583     16584     16580     16583     16585     16580     16583     16586
     16581     16580     16582     16581     16580     16583     16582     16580     16583
     16583     16586     16587     16583     16586     16588     16583     16586     16589
     16584     16583     16585     16584     16583     16586     16585     16583     16586
     16586     16589     16590     16586     16589     16591     16586     16589     16592
     16587     16586     16588     16587     16586     16589     16588     16586     16589
     16590     16589     16591     16590     16589     16592     16591     16589     16592
     16593     16594     16595     16593     16594     16596     16593     16594     16597
     16593     16598     16599     16593     16598     16600     16593     16598     16601
     16593     16602     16603     16593     16602     16604     16593     16602     16605
     16593     16606     16607     16593     16606     16608     16593     16606     16609
     16594     16593     16598     16594     16593     16602     16594     16593     16606
     16595     16594     16596     16595     16594     16597     16596     16594     16597
     16598     16593     16602     16598     16593     16606     16599     16598     16600
     16599     16598     16601     16600     16598     16601     16602     16593     16606
     16603     16602     16604     16603     16602     16605     16604     16602     16605
     16606     16609     16610     16606     16609     16611     16606     16609     16616
     16607     16606     16608     16607     16606     16609     16608     16606     16609
     16609     16616     16612     16610     16609     16611     16610     16609     16616
     16611     16609     16616     16612     16615     16617     16613     16612     16614
     16613     16612     16615     16613     16612     16616     16614     16612     16615
     16614     16612     16616     16615     16612     16616     16615     16617     16618
     16615     16617     16619     16615     16617     16622     16617     16622     16620
     16617     16622     16623     16617     16622     16624     16618     16617     16619
     16618     16617     16622     16619     16617     16622     16620     16622     16623
     16620     16622     16624     16620     16672     16673     16620     16672     16674
     16621     16620     16622     16621     16620     16672     16622     16620     16672
     16622     16624     16625     16622     16624     16626     16622     16624     16628
     16623     16622     16624     16624     16626     16627     16624     16628     16629
     16624     16628     16630     16625     16624     16626     16625     16624     16628
     16626     16624     16628     16628     16630     16631     16628     16630     16632
     16629     16628     16630     16630     16632     16633     16630     16632     16634
     16630     16632     16635     16631     16630     16632     16632     16635     16636
     16632     16635     16637     16632     16635     16638     16633     16632     16634
     16633     16632     16635     16634     16632     16635     16635     16638     16639
     16635     16638     16640     16635     16638     16641     16636     16635     16637
     16636     16635     16638     16637     16635     16638     16638     16641     16642
     16638     16641     16643     16638     16641     16644     16639     16638     16640
     16639     16638     16641     16640     16638     16641     16641     16644     16645
     16641     16644     16646     16641     16644     16647     16642     16641     16643
     16642     16641     16644     16643     16641     16644     16644     16647     16648
     16644     16647     16649     16644     16647     16650     16645     16644     16646
     16645     16644     16647     16646     16644     16647     16647     16650     16651
     16647     16650     16652     16647     16650     16653     16648     16647     16649
     16648     16647     16650     16649     16647     16650     16650     16653     16654
     16650     16653     16655     16650     16653     16656     16651     16650     16652
     16651     16650     16653     16652     16650     16653     16653     16656     16657
     16653     16656     16658     16653     16656     16659     16654     16653     16655
     16654     16653     16656     16655     16653     16656     16656     16659     16660
     16656     16659     16661     16656     16659     16662     16657     16656     16658
     16657     16656     16659     16658     16656     16659     16659     16662     16663
     16659     16662     16664     16659     16662     16665     16660     16659     16661
     16660     16659     16662     16661     16659     16662     16662     16665     16666
     16662     16665     16667     16662     16665     16668     16663     16662     16664
     16663     16662     16665     16664     16662     16665     16665     16668     16669
     16665     16668     16670     16665     16668     16671     16666     16665     16667
     16666     16665     16668     16667     16665     16668     16669     16668     16670
     16669     16668     16671     16670     16668     16671     16672     16674     16675
     16672     16674     16676     16672     16674     16677     16673     16672     16674
     16674     16677     16678     16674     16677     16679     16674     16677     16680
     16675     16674     16676     16675     16674     16677     16676     16674     16677
     16677     16680     16681     16677     16680     16682     16677     16680     16683
     16678     16677     16679     16678     16677     16680     16679     16677     16680
     16680     16683     16684     16680     16683     16685     16680     16683     16686
     16681     16680     16682     16681     16680     16683     16682     16680     16683
     16683     16686     16687     16683     16686     16688     16683     16686     16689
     16684     16683     16685     16684     16683     16686     16685     16683     16686
     16686     16689     16690     16686     16689     16691     16686     16689     16692
     16687     16686     16688     16687     16686     16689     16688     16686     16689
     16689     16692     16693     16689     16692     16694     16689     16692     16695
     16690     16689     16691     16690     16689     16692     16691     16689     16692
     16692     16695     16696     16692     16695     16697     16692     16695     16698
     16693     16692     16694     16693     16692     16695     16694     16692     16695
     16695     16698     16699     16695     16698     16700     16695     16698     16701
     16696     16695     16697     16696     16695     16698     16697     16695     16698
     16698     16701     16702     16698     16701     16703     16698     16701     16704
     16699     16698     16700     16699     16698     16701     16700     16698     16701
     16701     16704     16705     16701     16704     16706     16701     16704     16707
     16702     16701     16703     16702     16701     16704     16703     16701     16704
     16704     16707     16708     16704     16707     16709     16704     16707     16710
     16705     16704     16706     16705     16704     16707     16706     16704     16707
     16707     16710     16711     16707     16710     16712     16707     16710     16713
     16708     16707     16709     16708     16707     16710     16709     16707     16710
     16710     16713     16714     16710     16713     16715     16710     16713     16716
     16711     16710     16712     16711     16710     16713     16712     16710     16713
     16713     16716     16717     16713     16716     16718     16713     16716     16719
     16714     16713     16715     16714     16713     16716     16715     16713     16716
     16716     16719     16720     16716     16719     16721     16716     16719     16722
     16717     16716     16718     16717     16716     16719     16718     16716     16719
     16719     16722     16723     16719     16722     16724     16719     16722     16725
     16720     16719     16721     16720     16719     16722     16721     16719     16722
     16722     16725     16726     16722     16725     16727     16722     16725     16728
     16723     16722     16724     16723     16722     16725     16724     16722     16725
     16725     16728     16729     16725     16728     16730     16725     16728     16731
     16726     16725     16727     16726     16725     16728     16727     16725     16728
     16728     16731     16732     16728     16731     16733     16728     16731     16734
     16729     16728     16730     16729     16728     16731     16730     16728     16731
     16731     16734     16735     16731     16734     16736     16731     16734     16737
     16732     16731     16733     16732     16731     16734     16733     16731     16734
     16734     16737     16738     16734     16737     16739     16734     16737     16740
     16735     16734     16736     16735     16734     16737     16736     16734     16737
     16738     16737     16739     16738     16737     16740     16739     16737     16740
     16741     16742     16743     16741     16742     16744     16741     16742     16757
     16741     16745     16746     16741     16745     16747     16741     16745     16748
     16741     16749     16750     16741     16749     16751     16741     16749     16752
     16741     16753     16754     16741     16753     16755     16741     16753     16756
     16742     16741     16745     16742     16741     16749     16742     16741     16753
     16742     16757     16758     16742     16757     16759     16742     16757     16763
     16743     16742     16744     16743     16742     16757     16744     16742     16757
     16745     16741     16749     16745     16741     16753     16746     16745     16747
     16746     16745     16748     16747     16745     16748     16749     16741     16753
     16750     16749     16751     16750     16749     16752     16751     16749     16752
     16754     16753     16755     16754     16753     16756     16755     16753     16756
     16757     16763     16760     16758     16757     16759     16758     16757     16763
     16759     16757     16763     16760     16764     16765     16761     16760     16762
     16761     16760     16763     16761     16760     16764     16762     16760     16763
     16762     16760     16764     16763     16760     16764     16764     16765     16766
     16764     16765     16767     16764     16765     16768     16765     16768     16769
     16765     16768     16770     16765     16768     16776     16766     16765     16767
     16766     16765     16768     16767     16765     16768     16768     16770     16771
     16768     16776     16777     16768     16776     16778     16768     16776     16779
     16769     16768     16770     16769     16768     16776     16770     16768     16776
     16770     16771     16772     16770     16771     16773     16771     16773     16774
     16771     16773     16775     16771     16773     16785     16772     16771     16773
     16773     16785     16786     16773     16785     16787     16773     16785     16788
     16774     16773     16775     16774     16773     16785     16775     16773     16785
     16776     16779     16780     16777     16776     16778     16777     16776     16779
     16778     16776     16779     16779     16780     16781     16779     16780     16782
     16780     16782     16783     16780     16782     16784     16780     16782     16832
     16781     16780     16782     16782     16832     16833     16782     16832     16834
     16782     16832     16835     16783     16782     16784     16783     16782     16832
     16784     16782     16832     16785     16788     16789     16785     16788     16790
     16785     16788     16791     16786     16785     16787     16786     16785     16788
     16787     16785     16788     16788     16791     16792     16788     16791     16793
     16788     16791     16794     16789     16788     16790     16789     16788     16791
     16790     16788     16791     16791     16794     16795     16791     16794     16796
     16791     16794     16797     16792     16791     16793     16792     16791     16794
     16793     16791     16794     16794     16797     16798     16794     16797     16799
     16794     16797     16800     16795     16794     16796     16795     16794     16797
     16796     16794     16797     16797     16800     16801     16797     16800     16802
     16797     16800     16803     16798     16797     16799     16798     16797     16800
     16799     16797     16800     16800     16803     16804     16800     16803     16805
     16801     16800     16802     16801     16800     16803     16802     16800     16803
     16803     16805     16806     16803     16805     16807     16804     16803     16805
     16805     16807     16808     16805     16807     16809     16805     16807     16810
     16806     16805     16807     16807     16810     16811     16807     16810     16812
     16807     16810     16813     16808     16807     16809     16808     16807     16810
     16809     16807     16810     16810     16813     16814     16810     16813     16815
     16810     16813     16816     16811     16810     16812     16811     16810     16813
     16812     16810     16813     16813     16816     16817     16813     16816     16818
     16813     16816     16819     16814     16813     16815     16814     16813     16816
     16815     16813     16816     16816     16819     16820     16816     16819     16821
     16816     16819     16822     16817     16816     16818     16817     16816     16819
     16818     16816     16819     16819     16822     16823     16819     16822     16824
     16819     16822     16825     16820     16819     16821     16820     16819     16822
     16821     16819     16822     16822     16825     16826     16822     16825     16827
     16822     16825     16828     16823     16822     16824     16823     16822     16825
     16824     16822     16825     16825     16828     16829     16825     16828     16830
     16825     16828     16831     16826     16825     16827     16826     16825     16828
     16827     16825     16828     16829     16828     16830     16829     16828     16831
     16830     16828     16831     16832     16835     16836     16832     16835     16837
     16832     16835     16838     16833     16832     16834     16833     16832     16835
     16834     16832     16835     16835     16838     16839     16835     16838     16840
     16835     16838     16841     16836     16835     16837     16836     16835     16838
     16837     16835     16838     16838     16841     16842     16838     16841     16843
     16838     16841     16844     16839     16838     16840     16839     16838     16841
     16840     16838     16841     16841     16844     16845     16841     16844     16846
     16841     16844     16847     16842     16841     16843     16842     16841     16844
     16843     16841     16844     16844     16847     16848     16844     16847     16849
     16844     16847     16850     16845     16844     16846     16845     16844     16847
     16846     16844     16847     16847     16850     16851     16847     16850     16852
     16848     16847     16849     16848     16847     16850     16849     16847     16850
     16850     16852     16853     16850     16852     16854     16851     16850     16852
     16852     16854     16855     16852     16854     16856     16852     16854     16857
     16853     16852     16854     16854     16857     16858     16854     16857     16859
     16854     16857     16860     16855     16854     16856     16855     16854     16857
     16856     16854     16857     16857     16860     16861     16857     16860     16862
     16857     16860     16863     16858     16857     16859     16858     16857     16860
     16859     16857     16860     16860     16863     16864     16860     16863     16865
     16860     16863     16866     16861     16860     16862     16861     16860     16863
     16862     16860     16863     16863     16866     16867     16863     16866     16868
     16863     16866     16869     16864     16863     16865     16864     16863     16866
     16865     16863     16866     16866     16869     16870     16866     16869     16871
     16866     16869     16872     16867     16866     16868     16867     16866     16869
     16868     16866     16869     16869     16872     16873     16869     16872     16874
     16869     16872     16875     16870     16869     16871     16870     16869     16872
     16871     16869     16872     16872     16875     16876     16872     16875     16877
     16872     16875     16878     16873     16872     16874     16873     16872     16875
     16874     16872     16875     16876     16875     16877     16876     16875     16878
     16877     16875     16878     16879     16880     16881     16879     16880     16882
     16879     16880     16895     16879     16883     16884     16879     16883     16885
     16879     16883     16886     16879     16887     16888     16879     16887     16889
     16879     16887     16890     16879     16891     16892     16879     16891     16893
     16879     16891     16894     16880     16879     16883     16880     16879     16887
     16880     16879     16891     16880     16895     16896     16880     16895     16897
     16880     16895     16901     16881     16880     16882     16881     16880     16895
     16882     16880     16895     16883     16879     16887     16883     16879     16891
     16884     16883     16885     16884     16883     16886     16885     16883     16886
     16887     16879     16891     16888     16887     16889     16888     16887     16890
     16889     16887     16890     16892     16891     16893     16892     16891     16894
     16893     16891     16894     16895     16901     16898     16896     16895     16897
     16896     16895     16901     16897     16895     16901     16898     16902     16903
     16899     16898     16900     16899     16898     16901     16899     16898     16902
     16900     16898     16901     16900     16898     16902     16901     16898     16902
     16902     16903     16904     16902     16903     16905     16902     16903     16906
     16903     16906     16907     16903     16906     16908     16903     16906     16914
     16904     16903     16905     16904     16903     16906     16905     16903     16906
     16906     16908     16909     16906     16914     16915     16906     16914     16916
     16906     16914     16917     16907     16906     16908     16907     16906     16914
     16908     16906     16914     16908     16909     16910     16908     16909     16911
     16909     16911     16912     16909     16911     16913     16909     16911     16923
     16910     16909     16911     16911     16923     16924     16911     16923     16925
     16911     16923     16926     16912     16911     16913     16912     16911     16923
     16913     16911     16923     16914     16917     16918     16915     16914     16916
     16915     16914     16917     16916     16914     16917     16917     16918     16919
     16917     16918     16920     16918     16920     16921     16918     16920     16922
     16918     16920     16970     16919     16918     16920     16920     16970     16971
     16920     16970     16972     16920     16970     16973     16921     16920     16922
     16921     16920     16970     16922     16920     16970     16923     16926     16927
     16923     16926     16928     16923     16926     16929     16924     16923     16925
     16924     16923     16926     16925     16923     16926     16926     16929     16930
     16926     16929     16931     16926     16929     16932     16927     16926     16928
     16927     16926     16929     16928     16926     16929     16929     16932     16933
     16929     16932     16934     16929     16932     16935     16930     16929     16931
     16930     16929     16932     16931     16929     16932     16932     16935     16936
     16932     16935     16937     16932     16935     16938     16933     16932     16934
     16933     16932     16935     16934     16932     16935     16935     16938     16939
     16935     16938     16940     16935     16938     16941     16936     16935     16937
     16936     16935     16938     16937     16935     16938     16938     16941     16942
     16938     16941     16943     16939     16938     16940     16939     16938     16941
     16940     16938     16941     16941     16943     16944     16941     16943     16945
     16942     16941     16943     16943     16945     16946     16943     16945     16947
     16943     16945     16948     16944     16943     16945     16945     16948     16949
     16945     16948     16950     16945     16948     16951     16946     16945     16947
     16946     16945     16948     16947     16945     16948     16948     16951     16952
     16948     16951     16953     16948     16951     16954     16949     16948     16950
     16949     16948     16951     16950     16948     16951     16951     16954     16955
     16951     16954     16956     16951     16954     16957     16952     16951     16953
     16952     16951     16954     16953     16951     16954     16954     16957     16958
     16954     16957     16959     16954     16957     16960     16955     16954     16956
     16955     16954     16957     16956     16954     16957     16957     16960     16961
     16957     16960     16962     16957     16960     16963     16958     16957     16959
     16958     16957     16960     16959     16957     16960     16960     16963     16964
     16960     16963     16965     16960     16963     16966     16961     16960     16962
     16961     16960     16963     16962     16960     16963     16963     16966     16967
     16963     16966     16968     16963     16966     16969     16964     16963     16965
     16964     16963     16966     16965     16963     16966     16967     16966     16968
     16967     16966     16969     16968     16966     16969     16970     16973     16974
     16970     16973     16975     16970     16973     16976     16971     16970     16972
     16971     16970     16973     16972     16970     16973     16973     16976     16977
     16973     16976     16978     16973     16976     16979     16974     16973     16975
     16974     16973     16976     16975     16973     16976     16976     16979     16980
     16976     16979     16981     16976     16979     16982     16977     16976     16978
     16977     16976     16979     16978     16976     16979     16979     16982     16983
     16979     16982     16984     16979     16982     16985     16980     16979     16981
     16980     16979     16982     16981     16979     16982     16982     16985     16986
     16982     16985     16987     16982     16985     16988     16983     16982     16984
     16983     16982     16985     16984     16982     16985     16985     16988     16989
     16985     16988     16990     16986     16985     16987     16986     16985     16988
     16987     16985     16988     16988     16990     16991     16988     16990     16992
     16989     16988     16990     16990     16992     16993     16990     16992     16994
     16990     16992     16995     16991     16990     16992     16992     16995     16996
     16992     16995     16997     16992     16995     16998     16993     16992     16994
     16993     16992     16995     16994     16992     16995     16995     16998     16999
     16995     16998     17000     16995     16998     17001     16996     16995     16997
     16996     16995     16998     16997     16995     16998     16998     17001     17002
     16998     17001     17003     16998     17001     17004     16999     16998     17000
     16999     16998     17001     17000     16998     17001     17001     17004     17005
     17001     17004     17006     17001     17004     17007     17002     17001     17003
     17002     17001     17004     17003     17001     17004     17004     17007     17008
     17004     17007     17009     17004     17007     17010     17005     17004     17006
     17005     17004     17007     17006     17004     17007     17007     17010     17011
     17007     17010     17012     17007     17010     17013     17008     17007     17009
     17008     17007     17010     17009     17007     17010     17010     17013     17014
     17010     17013     17015     17010     17013     17016     17011     17010     17012
     17011     17010     17013     17012     17010     17013     17014     17013     17015
     17014     17013     17016     17015     17013     17016     17017     17021     17022
     17017     17021     17023     17017     17021     17024     17018     17017     17019
     17018     17017     17020     17018     17017     17021     17019     17017     17020
     17019     17017     17021     17020     17017     17021     17021     17024     17025
     17021     17024     17026     17021     17024     17031     17022     17021     17023
     17022     17021     17024     17023     17021     17024     17024     17031     17027
     17025     17024     17026     17025     17024     17031     17026     17024     17031
     17027     17030     17032     17028     17027     17029     17028     17027     17030
     17028     17027     17031     17029     17027     17030     17029     17027     17031
     17030     17027     17031     17030     17032     17033     17030     17032     17034
     17030     17032     17035     17032     17035     17036     17032     17035     17037
     17032     17035     17043     17033     17032     17034     17033     17032     17035
     17034     17032     17035     17035     17037     17038     17035     17043     17044
     17035     17043     17045     17035     17043     17046     17036     17035     17037
     17036     17035     17043     17037     17035     17043     17037     17038     17039
     17037     17038     17040     17038     17040     17041     17038     17040     17042
     17038     17040     17052     17039     17038     17040     17040     17052     17053
     17040     17052     17054     17040     17052     17055     17041     17040     17042
     17041     17040     17052     17042     17040     17052     17043     17046     17047
     17044     17043     17045     17044     17043     17046     17045     17043     17046
     17046     17047     17048     17046     17047     17049     17047     17049     17050
     17047     17049     17051     17047     17049     17099     17048     17047     17049
     17049     17099     17100     17049     17099     17101     17049     17099     17102
     17050     17049     17051     17050     17049     17099     17051     17049     17099
     17052     17055     17056     17052     17055     17057     17052     17055     17058
     17053     17052     17054     17053     17052     17055     17054     17052     17055
     17055     17058     17059     17055     17058     17060     17055     17058     17061
     17056     17055     17057     17056     17055     17058     17057     17055     17058
     17058     17061     17062     17058     17061     17063     17058     17061     17064
     17059     17058     17060     17059     17058     17061     17060     17058     17061
     17061     17064     17065     17061     17064     17066     17061     17064     17067
     17062     17061     17063     17062     17061     17064     17063     17061     17064
     17064     17067     17068     17064     17067     17069     17064     17067     17070
     17065     17064     17066     17065     17064     17067     17066     17064     17067
     17067     17070     17071     17067     17070     17072     17068     17067     17069
     17068     17067     17070     17069     17067     17070     17070     17072     17073
     17070     17072     17074     17071     17070     17072     17072     17074     17075
     17072     17074     17076     17072     17074     17077     17073     17072     17074
     17074     17077     17078     17074     17077     17079     17074     17077     17080
     17075     17074     17076     17075     17074     17077     17076     17074     17077
     17077     17080     17081     17077     17080     17082     17077     17080     17083
     17078     17077     17079     17078     17077     17080     17079     17077     17080
     17080     17083     17084     17080     17083     17085     17080     17083     17086
     17081     17080     17082     17081     17080     17083     17082     17080     17083
     17083     17086     17087     17083     17086     17088     17083     17086     17089
     17084     17083     17085     17084     17083     17086     17085     17083     17086
     17086     17089     17090     17086     17089     17091     17086     17089     17092
     17087     17086     17088     17087     17086     17089     17088     17086     17089
     17089     17092     17093     17089     17092     17094     17089     17092     17095
     17090     17089     17091     17090     17089     17092     17091     17089     17092
     17092     17095     17096     17092     17095     17097     17092     17095     17098
     17093     17092     17094     17093     17092     17095     17094     17092     17095
     17096     17095     17097     17096     17095     17098     17097     17095     17098
     17099     17102     17103     17099     17102     17104     17099     17102     17105
     17100     17099     17101     17100     17099     17102     17101     17099     17102
     17102     17105     17106     17102     17105     17107     17102     17105     17108
     17103     17102     17104     17103     17102     17105     17104     17102     17105
     17105     17108     17109     17105     17108     17110     17105     17108     17111
     17106     17105     17107     17106     17105     17108     17107     17105     17108
     17108     17111     17112     17108     17111     17113     17108     17111     17114
     17109     17108     17110     17109     17108     17111     17110     17108     17111
     17111     17114     17115     17111     17114     17116     17111     17114     17117
     17112     17111     17113     17112     17111     17114     17113     17111     17114
     17114     17117     17118     17114     17117     17119     17115     17114     17116
     17115     17114     17117     17116     17114     17117     17117     17119     17120
     17117     17119     17121     17118     17117     17119     17119     17121     17122
     17119     17121     17123     17119     17121     17124     17120     17119     17121
     17121     17124     17125     17121     17124     17126     17121     17124     17127
     17122     17121     17123     17122     17121     17124     17123     17121     17124
     17124     17127     17128     17124     17127     17129     17124     17127     17130
     17125     17124     17126     17125     17124     17127     17126     17124     17127
     17127     17130     17131     17127     17130     17132     17127     17130     17133
     17128     17127     17129     17128     17127     17130     17129     17127     17130
     17130     17133     17134     17130     17133     17135     17130     17133     17136
     17131     17130     17132     17131     17130     17133     17132     17130     17133
     17133     17136     17137     17133     17136     17138     17133     17136     17139
     17134     17133     17135     17134     17133     17136     17135     17133     17136
     17136     17139     17140     17136     17139     17141     17136     17139     17142
     17137     17136     17138     17137     17136     17139     17138     17136     17139
     17139     17142     17143     17139     17142     17144     17139     17142     17145
     17140     17139     17141     17140     17139     17142     17141     17139     17142
     17143     17142     17144     17143     17142     17145     17144     17142     17145
     17146     17148     17149     17146     17150     17151     17146     17150     17152
     17146     17150     17153     17146     17192     17189     17146     17192     17193
     17146     17192     17194     17147     17146     17148     17147     17146     17150
     17147     17146     17192     17148     17146     17150     17148     17146     17192
     17150     17146     17192     17150     17153     17154     17150     17153     17184
     17151     17150     17152     17151     17150     17153     17152     17150     17153
     17153     17154     17155     17153     17154     17156     17153     17184     17182
     17153     17184     17185     17153     17184     17189     17154     17153     17184
     17154     17156     17157     17154     17156     17158     17154     17156     17159
     17155     17154     17156     17156     17159     17160     17156     17159     17161
     17156     17159     17182     17157     17156     17158     17157     17156     17159
     17158     17156     17159     17159     17161     17162     17159     17161     17163
     17159     17161     17171     17159     17182     17179     17159     17182     17183
     17159     17182     17184     17160     17159     17161     17160     17159     17182
     17161     17159     17182     17161     17163     17164     17161     17163     17165
     17161     17163     17166     17161     17171     17169     17161     17171     17172
     17161     17171     17176     17162     17161     17163     17162     17161     17171
     17163     17161     17171     17163     17166     17167     17163     17166     17168
     17163     17166     17169     17164     17163     17165     17164     17163     17166
     17165     17163     17166     17166     17169     17170     17166     17169     17171
     17166     17169     17195     17167     17166     17168     17167     17166     17169
     17168     17166     17169     17169     17171     17172     17169     17171     17176
     17169     17195     17196     17169     17195     17197     17169     17195     17201
     17170     17169     17171     17170     17169     17195     17171     17169     17195
     17171     17172     17173     17171     17172     17174     17171     17172     17175
     17171     17176     17177     17171     17176     17178     17171     17176     17179
     17172     17171     17176     17173     17172     17174     17173     17172     17175
     17174     17172     17175     17176     17179     17180     17176     17179     17181
     17176     17179     17182     17177     17176     17178     17177     17176     17179
     17178     17176     17179     17179     17182     17183     17179     17182     17184
     17180     17179     17181     17180     17179     17182     17181     17179     17182
     17182     17184     17185     17182     17184     17189     17183     17182     17184
     17184     17185     17186     17184     17185     17187     17184     17185     17188
     17184     17189     17190     17184     17189     17191     17184     17189     17192
     17185     17184     17189     17186     17185     17187     17186     17185     17188
     17187     17185     17188     17189     17192     17193     17189     17192     17194
     17190     17189     17191     17190     17189     17192     17191     17189     17192
     17193     17192     17194     17195     17197     17198     17195     17197     17199
     17195     17197     17200     17195     17201     17202     17195     17201     17203
     17195     17201     17204     17196     17195     17197     17196     17195     17201
     17197     17195     17201     17198     17197     17199     17198     17197     17200
     17199     17197     17200     17201     17204     17205     17201     17204     17206
     17201     17204     17207     17202     17201     17203     17202     17201     17204
     17203     17201     17204     17204     17207     17208     17204     17207     17209
     17204     17207     17210     17205     17204     17206     17205     17204     17207
     17206     17204     17207     17207     17210     17211     17207     17210     17212
     17207     17210     17216     17208     17207     17209     17208     17207     17210
     17209     17207     17210     17210     17212     17213     17210     17212     17214
     17210     17212     17215     17210     17216     17217     17210     17216     17218
     17210     17216     17219     17211     17210     17212     17211     17210     17216
     17212     17210     17216     17213     17212     17214     17213     17212     17215
     17214     17212     17215     17217     17216     17218     17217     17216     17219
     17218     17216     17219     17220     17221     17222     17220     17221     17223
     17220     17221     17224     17220     17225     17226     17220     17225     17227
     17220     17225     17228     17220     17229     17230     17220     17229     17231
     17220     17229     17232     17220     17233     17234     17220     17233     17235
     17220     17233     17236     17221     17220     17225     17221     17220     17229
     17221     17220     17233     17222     17221     17223     17222     17221     17224
     17223     17221     17224     17225     17220     17229     17225     17220     17233
     17226     17225     17227     17226     17225     17228     17227     17225     17228
     17229     17220     17233     17230     17229     17231     17230     17229     17232
     17231     17229     17232     17233     17236     17237     17233     17236     17238
     17233     17236     17243     17234     17233     17235     17234     17233     17236
     17235     17233     17236     17236     17243     17239     17237     17236     17238
     17237     17236     17243     17238     17236     17243     17239     17242     17244
     17240     17239     17241     17240     17239     17242     17240     17239     17243
     17241     17239     17242     17241     17239     17243     17242     17239     17243
     17242     17244     17245     17242     17244     17246     17242     17244     17249
     17244     17249     17247     17244     17249     17250     17244     17249     17251
     17245     17244     17246     17245     17244     17249     17246     17244     17249
     17247     17249     17250     17247     17249     17251     17247     17299     17300
     17247     17299     17301     17248     17247     17249     17248     17247     17299
     17249     17247     17299     17249     17251     17252     17249     17251     17253
     17249     17251     17255     17250     17249     17251     17251     17253     17254
     17251     17255     17256     17251     17255     17257     17252     17251     17253
     17252     17251     17255     17253     17251     17255     17255     17257     17258
     17255     17257     17259     17256     17255     17257     17257     17259     17260
     17257     17259     17261     17257     17259     17262     17258     17257     17259
     17259     17262     17263     17259     17262     17264     17259     17262     17265
     17260     17259     17261     17260     17259     17262     17261     17259     17262
     17262     17265     17266     17262     17265     17267     17262     17265     17268
     17263     17262     17264     17263     17262     17265     17264     17262     17265
     17265     17268     17269     17265     17268     17270     17265     17268     17271
     17266     17265     17267     17266     17265     17268     17267     17265     17268
     17268     17271     17272     17268     17271     17273     17268     17271     17274
     17269     17268     17270     17269     17268     17271     17270     17268     17271
     17271     17274     17275     17271     17274     17276     17271     17274     17277
     17272     17271     17273     17272     17271     17274     17273     17271     17274
     17274     17277     17278     17274     17277     17279     17274     17277     17280
     17275     17274     17276     17275     17274     17277     17276     17274     17277
     17277     17280     17281     17277     17280     17282     17277     17280     17283
     17278     17277     17279     17278     17277     17280     17279     17277     17280
     17280     17283     17284     17280     17283     17285     17280     17283     17286
     17281     17280     17282     17281     17280     17283     17282     17280     17283
     17283     17286     17287     17283     17286     17288     17283     17286     17289
     17284     17283     17285     17284     17283     17286     17285     17283     17286
     17286     17289     17290     17286     17289     17291     17286     17289     17292
     17287     17286     17288     17287     17286     17289     17288     17286     17289
     17289     17292     17293     17289     17292     17294     17289     17292     17295
     17290     17289     17291     17290     17289     17292     17291     17289     17292
     17292     17295     17296     17292     17295     17297     17292     17295     17298
     17293     17292     17294     17293     17292     17295     17294     17292     17295
     17296     17295     17297     17296     17295     17298     17297     17295     17298
     17299     17301     17302     17299     17301     17303     17299     17301     17304
     17300     17299     17301     17301     17304     17305     17301     17304     17306
     17301     17304     17307     17302     17301     17303     17302     17301     17304
     17303     17301     17304     17304     17307     17308     17304     17307     17309
     17304     17307     17310     17305     17304     17306     17305     17304     17307
     17306     17304     17307     17307     17310     17311     17307     17310     17312
     17307     17310     17313     17308     17307     17309     17308     17307     17310
     17309     17307     17310     17310     17313     17314     17310     17313     17315
     17310     17313     17316     17311     17310     17312     17311     17310     17313
     17312     17310     17313     17313     17316     17317     17313     17316     17318
     17313     17316     17319     17314     17313     17315     17314     17313     17316
     17315     17313     17316     17316     17319     17320     17316     17319     17321
     17316     17319     17322     17317     17316     17318     17317     17316     17319
     17318     17316     17319     17319     17322     17323     17319     17322     17324
     17319     17322     17325     17320     17319     17321     17320     17319     17322
     17321     17319     17322     17322     17325     17326     17322     17325     17327
     17322     17325     17328     17323     17322     17324     17323     17322     17325
     17324     17322     17325     17325     17328     17329     17325     17328     17330
     17325     17328     17331     17326     17325     17327     17326     17325     17328
     17327     17325     17328     17328     17331     17332     17328     17331     17333
     17328     17331     17334     17329     17328     17330     17329     17328     17331
     17330     17328     17331     17331     17334     17335     17331     17334     17336
     17331     17334     17337     17332     17331     17333     17332     17331     17334
     17333     17331     17334     17334     17337     17338     17334     17337     17339
     17334     17337     17340     17335     17334     17336     17335     17334     17337
     17336     17334     17337     17337     17340     17341     17337     17340     17342
     17337     17340     17343     17338     17337     17339     17338     17337     17340
     17339     17337     17340     17340     17343     17344     17340     17343     17345
     17340     17343     17346     17341     17340     17342     17341     17340     17343
     17342     17340     17343     17343     17346     17347     17343     17346     17348
     17343     17346     17349     17344     17343     17345     17344     17343     17346
     17345     17343     17346     17346     17349     17350     17346     17349     17351
     17346     17349     17352     17347     17346     17348     17347     17346     17349
     17348     17346     17349     17349     17352     17353     17349     17352     17354
     17349     17352     17355     17350     17349     17351     17350     17349     17352
     17351     17349     17352     17352     17355     17356     17352     17355     17357
     17352     17355     17358     17353     17352     17354     17353     17352     17355
     17354     17352     17355     17355     17358     17359     17355     17358     17360
     17355     17358     17361     17356     17355     17357     17356     17355     17358
     17357     17355     17358     17358     17361     17362     17358     17361     17363
     17358     17361     17364     17359     17358     17360     17359     17358     17361
     17360     17358     17361     17361     17364     17365     17361     17364     17366
     17361     17364     17367     17362     17361     17363     17362     17361     17364
     17363     17361     17364     17365     17364     17366     17365     17364     17367
     17366     17364     17367     17368     17369     17370     17368     17369     17371
     17368     17369     17384     17368     17372     17373     17368     17372     17374
     17368     17372     17375     17368     17376     17377     17368     17376     17378
     17368     17376     17379     17368     17380     17381     17368     17380     17382
     17368     17380     17383     17369     17368     17372     17369     17368     17376
     17369     17368     17380     17369     17384     17385     17369     17384     17386
     17369     17384     17390     17370     17369     17371     17370     17369     17384
     17371     17369     17384     17372     17368     17376     17372     17368     17380
     17373     17372     17374     17373     17372     17375     17374     17372     17375
     17376     17368     17380     17377     17376     17378     17377     17376     17379
     17378     17376     17379     17381     17380     17382     17381     17380     17383
     17382     17380     17383     17384     17390     17387     17385     17384     17386
     17385     17384     17390     17386     17384     17390     17387     17391     17392
     17388     17387     17389     17388     17387     17390     17388     17387     17391
     17389     17387     17390     17389     17387     17391     17390     17387     17391
     17391     17392     17393     17391     17392     17394     17391     17392     17395
     17392     17395     17396     17392     17395     17397     17392     17395     17403
     17393     17392     17394     17393     17392     17395     17394     17392     17395
     17395     17397     17398     17395     17403     17404     17395     17403     17405
     17395     17403     17406     17396     17395     17397     17396     17395     17403
     17397     17395     17403     17397     17398     17399     17397     17398     17400
     17398     17400     17401     17398     17400     17402     17398     17400     17412
     17399     17398     17400     17400     17412     17413     17400     17412     17414
     17400     17412     17415     17401     17400     17402     17401     17400     17412
     17402     17400     17412     17403     17406     17407     17404     17403     17405
     17404     17403     17406     17405     17403     17406     17406     17407     17408
     17406     17407     17409     17407     17409     17410     17407     17409     17411
     17407     17409     17459     17408     17407     17409     17409     17459     17460
     17409     17459     17461     17409     17459     17462     17410     17409     17411
     17410     17409     17459     17411     17409     17459     17412     17415     17416
     17412     17415     17417     17412     17415     17418     17413     17412     17414
     17413     17412     17415     17414     17412     17415     17415     17418     17419
     17415     17418     17420     17415     17418     17421     17416     17415     17417
     17416     17415     17418     17417     17415     17418     17418     17421     17422
     17418     17421     17423     17418     17421     17424     17419     17418     17420
     17419     17418     17421     17420     17418     17421     17421     17424     17425
     17421     17424     17426     17421     17424     17427     17422     17421     17423
     17422     17421     17424     17423     17421     17424     17424     17427     17428
     17424     17427     17429     17424     17427     17430     17425     17424     17426
     17425     17424     17427     17426     17424     17427     17427     17430     17431
     17427     17430     17432     17428     17427     17429     17428     17427     17430
     17429     17427     17430     17430     17432     17433     17430     17432     17434
     17431     17430     17432     17432     17434     17435     17432     17434     17436
     17432     17434     17437     17433     17432     17434     17434     17437     17438
     17434     17437     17439     17434     17437     17440     17435     17434     17436
     17435     17434     17437     17436     17434     17437     17437     17440     17441
     17437     17440     17442     17437     17440     17443     17438     17437     17439
     17438     17437     17440     17439     17437     17440     17440     17443     17444
     17440     17443     17445     17440     17443     17446     17441     17440     17442
     17441     17440     17443     17442     17440     17443     17443     17446     17447
     17443     17446     17448     17443     17446     17449     17444     17443     17445
     17444     17443     17446     17445     17443     17446     17446     17449     17450
     17446     17449     17451     17446     17449     17452     17447     17446     17448
     17447     17446     17449     17448     17446     17449     17449     17452     17453
     17449     17452     17454     17449     17452     17455     17450     17449     17451
     17450     17449     17452     17451     17449     17452     17452     17455     17456
     17452     17455     17457     17452     17455     17458     17453     17452     17454
     17453     17452     17455     17454     17452     17455     17456     17455     17457
     17456     17455     17458     17457     17455     17458     17459     17462     17463
     17459     17462     17464     17459     17462     17465     17460     17459     17461
     17460     17459     17462     17461     17459     17462     17462     17465     17466
     17462     17465     17467     17462     17465     17468     17463     17462     17464
     17463     17462     17465     17464     17462     17465     17465     17468     17469
     17465     17468     17470     17465     17468     17471     17466     17465     17467
     17466     17465     17468     17467     17465     17468     17468     17471     17472
     17468     17471     17473     17468     17471     17474     17469     17468     17470
     17469     17468     17471     17470     17468     17471     17471     17474     17475
     17471     17474     17476     17471     17474     17477     17472     17471     17473
     17472     17471     17474     17473     17471     17474     17474     17477     17478
     17474     17477     17479     17475     17474     17476     17475     17474     17477
     17476     17474     17477     17477     17479     17480     17477     17479     17481
     17478     17477     17479     17479     17481     17482     17479     17481     17483
     17479     17481     17484     17480     17479     17481     17481     17484     17485
     17481     17484     17486     17481     17484     17487     17482     17481     17483
     17482     17481     17484     17483     17481     17484     17484     17487     17488
     17484     17487     17489     17484     17487     17490     17485     17484     17486
     17485     17484     17487     17486     17484     17487     17487     17490     17491
     17487     17490     17492     17487     17490     17493     17488     17487     17489
     17488     17487     17490     17489     17487     17490     17490     17493     17494
     17490     17493     17495     17490     17493     17496     17491     17490     17492
     17491     17490     17493     17492     17490     17493     17493     17496     17497
     17493     17496     17498     17493     17496     17499     17494     17493     17495
     17494     17493     17496     17495     17493     17496     17496     17499     17500
     17496     17499     17501     17496     17499     17502     17497     17496     17498
     17497     17496     17499     17498     17496     17499     17499     17502     17503
     17499     17502     17504     17499     17502     17505     17500     17499     17501
     17500     17499     17502     17501     17499     17502     17503     17502     17504
     17503     17502     17505     17504     17502     17505     17506     17507     17508
     17506     17507     17509     17506     17507     17510     17506     17511     17512
     17506     17511     17513     17506     17511     17514     17506     17515     17516
     17506     17515     17517     17506     17515     17518     17506     17519     17520
     17506     17519     17521     17506     17519     17522     17507     17506     17511
     17507     17506     17515     17507     17506     17519     17508     17507     17509
     17508     17507     17510     17509     17507     17510     17511     17506     17515
     17511     17506     17519     17512     17511     17513     17512     17511     17514
     17513     17511     17514     17515     17506     17519     17516     17515     17517
     17516     17515     17518     17517     17515     17518     17519     17522     17523
     17519     17522     17524     17519     17522     17529     17520     17519     17521
     17520     17519     17522     17521     17519     17522     17522     17529     17525
     17523     17522     17524     17523     17522     17529     17524     17522     17529
     17525     17528     17530     17526     17525     17527     17526     17525     17528
     17526     17525     17529     17527     17525     17528     17527     17525     17529
     17528     17525     17529     17528     17530     17531     17528     17530     17532
     17528     17530     17535     17530     17535     17533     17530     17535     17536
     17530     17535     17537     17531     17530     17532     17531     17530     17535
     17532     17530     17535     17533     17535     17536     17533     17535     17537
     17533     17585     17586     17533     17585     17587     17534     17533     17535
     17534     17533     17585     17535     17533     17585     17535     17537     17538
     17535     17537     17539     17535     17537     17541     17536     17535     17537
     17537     17539     17540     17537     17541     17542     17537     17541     17543
     17538     17537     17539     17538     17537     17541     17539     17537     17541
     17541     17543     17544     17541     17543     17545     17542     17541     17543
     17543     17545     17546     17543     17545     17547     17543     17545     17548
     17544     17543     17545     17545     17548     17549     17545     17548     17550
     17545     17548     17551     17546     17545     17547     17546     17545     17548
     17547     17545     17548     17548     17551     17552     17548     17551     17553
     17548     17551     17554     17549     17548     17550     17549     17548     17551
     17550     17548     17551     17551     17554     17555     17551     17554     17556
     17551     17554     17557     17552     17551     17553     17552     17551     17554
     17553     17551     17554     17554     17557     17558     17554     17557     17559
     17554     17557     17560     17555     17554     17556     17555     17554     17557
     17556     17554     17557     17557     17560     17561     17557     17560     17562
     17557     17560     17563     17558     17557     17559     17558     17557     17560
     17559     17557     17560     17560     17563     17564     17560     17563     17565
     17560     17563     17566     17561     17560     17562     17561     17560     17563
     17562     17560     17563     17563     17566     17567     17563     17566     17568
     17563     17566     17569     17564     17563     17565     17564     17563     17566
     17565     17563     17566     17566     17569     17570     17566     17569     17571
     17566     17569     17572     17567     17566     17568     17567     17566     17569
     17568     17566     17569     17569     17572     17573     17569     17572     17574
     17569     17572     17575     17570     17569     17571     17570     17569     17572
     17571     17569     17572     17572     17575     17576     17572     17575     17577
     17572     17575     17578     17573     17572     17574     17573     17572     17575
     17574     17572     17575     17575     17578     17579     17575     17578     17580
     17575     17578     17581     17576     17575     17577     17576     17575     17578
     17577     17575     17578     17578     17581     17582     17578     17581     17583
     17578     17581     17584     17579     17578     17580     17579     17578     17581
     17580     17578     17581     17582     17581     17583     17582     17581     17584
     17583     17581     17584     17585     17587     17588     17585     17587     17589
     17585     17587     17590     17586     17585     17587     17587     17590     17591
     17587     17590     17592     17587     17590     17593     17588     17587     17589
     17588     17587     17590     17589     17587     17590     17590     17593     17594
     17590     17593     17595     17590     17593     17596     17591     17590     17592
     17591     17590     17593     17592     17590     17593     17593     17596     17597
     17593     17596     17598     17593     17596     17599     17594     17593     17595
     17594     17593     17596     17595     17593     17596     17596     17599     17600
     17596     17599     17601     17596     17599     17602     17597     17596     17598
     17597     17596     17599     17598     17596     17599     17599     17602     17603
     17599     17602     17604     17599     17602     17605     17600     17599     17601
     17600     17599     17602     17601     17599     17602     17602     17605     17606
     17602     17605     17607     17602     17605     17608     17603     17602     17604
     17603     17602     17605     17604     17602     17605     17605     17608     17609
     17605     17608     17610     17605     17608     17611     17606     17605     17607
     17606     17605     17608     17607     17605     17608     17608     17611     17612
     17608     17611     17613     17608     17611     17614     17609     17608     17610
     17609     17608     17611     17610     17608     17611     17611     17614     17615
     17611     17614     17616     17611     17614     17617     17612     17611     17613
     17612     17611     17614     17613     17611     17614     17614     17617     17618
     17614     17617     17619     17614     17617     17620     17615     17614     17616
     17615     17614     17617     17616     17614     17617     17617     17620     17621
     17617     17620     17622     17617     17620     17623     17618     17617     17619
     17618     17617     17620     17619     17617     17620     17620     17623     17624
     17620     17623     17625     17620     17623     17626     17621     17620     17622
     17621     17620     17623     17622     17620     17623     17623     17626     17627
     17623     17626     17628     17623     17626     17629     17624     17623     17625
     17624     17623     17626     17625     17623     17626     17626     17629     17630
     17626     17629     17631     17626     17629     17632     17627     17626     17628
     17627     17626     17629     17628     17626     17629     17629     17632     17633
     17629     17632     17634     17629     17632     17635     17630     17629     17631
     17630     17629     17632     17631     17629     17632     17632     17635     17636
     17632     17635     17637     17632     17635     17638     17633     17632     17634
     17633     17632     17635     17634     17632     17635     17635     17638     17639
     17635     17638     17640     17635     17638     17641     17636     17635     17637
     17636     17635     17638     17637     17635     17638     17638     17641     17642
     17638     17641     17643     17638     17641     17644     17639     17638     17640
     17639     17638     17641     17640     17638     17641     17641     17644     17645
     17641     17644     17646     17641     17644     17647     17642     17641     17643
     17642     17641     17644     17643     17641     17644     17644     17647     17648
     17644     17647     17649     17644     17647     17650     17645     17644     17646
     17645     17644     17647     17646     17644     17647     17647     17650     17651
     17647     17650     17652     17647     17650     17653     17648     17647     17649
     17648     17647     17650     17649     17647     17650     17651     17650     17652
     17651     17650     17653     17652     17650     17653     17654     17656     17657
     17654     17658     17659     17654     17658     17660     17654     17658     17661
     17654     17700     17697     17654     17700     17701     17654     17700     17702
     17655     17654     17656     17655     17654     17658     17655     17654     17700
     17656     17654     17658     17656     17654     17700     17658     17654     17700
     17658     17661     17662     17658     17661     17692     17659     17658     17660
     17659     17658     17661     17660     17658     17661     17661     17662     17663
     17661     17662     17664     17661     17692     17690     17661     17692     17693
     17661     17692     17697     17662     17661     17692     17662     17664     17665
     17662     17664     17666     17662     17664     17667     17663     17662     17664
     17664     17667     17668     17664     17667     17669     17664     17667     17690
     17665     17664     17666     17665     17664     17667     17666     17664     17667
     17667     17669     17670     17667     17669     17671     17667     17669     17679
     17667     17690     17687     17667     17690     17691     17667     17690     17692
     17668     17667     17669     17668     17667     17690     17669     17667     17690
     17669     17671     17672     17669     17671     17673     17669     17671     17674
     17669     17679     17677     17669     17679     17680     17669     17679     17684
     17670     17669     17671     17670     17669     17679     17671     17669     17679
     17671     17674     17675     17671     17674     17676     17671     17674     17677
     17672     17671     17673     17672     17671     17674     17673     17671     17674
     17674     17677     17678     17674     17677     17679     17674     17677     17703
     17675     17674     17676     17675     17674     17677     17676     17674     17677
     17677     17679     17680     17677     17679     17684     17677     17703     17704
     17677     17703     17705     17677     17703     17709     17678     17677     17679
     17678     17677     17703     17679     17677     17703     17679     17680     17681
     17679     17680     17682     17679     17680     17683     17679     17684     17685
     17679     17684     17686     17679     17684     17687     17680     17679     17684
     17681     17680     17682     17681     17680     17683     17682     17680     17683
     17684     17687     17688     17684     17687     17689     17684     17687     17690
     17685     17684     17686     17685     17684     17687     17686     17684     17687
     17687     17690     17691     17687     17690     17692     17688     17687     17689
     17688     17687     17690     17689     17687     17690     17690     17692     17693
     17690     17692     17697     17691     17690     17692     17692     17693     17694
     17692     17693     17695     17692     17693     17696     17692     17697     17698
     17692     17697     17699     17692     17697     17700     17693     17692     17697
     17694     17693     17695     17694     17693     17696     17695     17693     17696
     17697     17700     17701     17697     17700     17702     17698     17697     17699
     17698     17697     17700     17699     17697     17700     17701     17700     17702
     17703     17705     17706     17703     17705     17707     17703     17705     17708
     17703     17709     17710     17703     17709     17711     17703     17709     17712
     17704     17703     17705     17704     17703     17709     17705     17703     17709
     17706     17705     17707     17706     17705     17708     17707     17705     17708
     17709     17712     17713     17709     17712     17714     17709     17712     17715
     17710     17709     17711     17710     17709     17712     17711     17709     17712
     17712     17715     17716     17712     17715     17717     17712     17715     17718
     17713     17712     17714     17713     17712     17715     17714     17712     17715
     17715     17718     17719     17715     17718     17720     17715     17718     17724
     17716     17715     17717     17716     17715     17718     17717     17715     17718
     17718     17720     17721     17718     17720     17722     17718     17720     17723
     17718     17724     17725     17718     17724     17726     17718     17724     17727
     17719     17718     17720     17719     17718     17724     17720     17718     17724
     17721     17720     17722     17721     17720     17723     17722     17720     17723
     17725     17724     17726     17725     17724     17727     17726     17724     17727
     17728     17730     17731     17728     17732     17733     17728     17732     17734
     17728     17732     17735     17728     17774     17771     17728     17774     17775
     17728     17774     17776     17729     17728     17730     17729     17728     17732
     17729     17728     17774     17730     17728     17732     17730     17728     17774
     17732     17728     17774     17732     17735     17736     17732     17735     17766
     17733     17732     17734     17733     17732     17735     17734     17732     17735
     17735     17736     17737     17735     17736     17738     17735     17766     17764
     17735     17766     17767     17735     17766     17771     17736     17735     17766
     17736     17738     17739     17736     17738     17740     17736     17738     17741
     17737     17736     17738     17738     17741     17742     17738     17741     17743
     17738     17741     17764     17739     17738     17740     17739     17738     17741
     17740     17738     17741     17741     17743     17744     17741     17743     17745
     17741     17743     17753     17741     17764     17761     17741     17764     17765
     17741     17764     17766     17742     17741     17743     17742     17741     17764
     17743     17741     17764     17743     17745     17746     17743     17745     17747
     17743     17745     17748     17743     17753     17751     17743     17753     17754
     17743     17753     17758     17744     17743     17745     17744     17743     17753
     17745     17743     17753     17745     17748     17749     17745     17748     17750
     17745     17748     17751     17746     17745     17747     17746     17745     17748
     17747     17745     17748     17748     17751     17752     17748     17751     17753
     17748     17751     17777     17749     17748     17750     17749     17748     17751
     17750     17748     17751     17751     17753     17754     17751     17753     17758
     17751     17777     17778     17751     17777     17779     17751     17777     17783
     17752     17751     17753     17752     17751     17777     17753     17751     17777
     17753     17754     17755     17753     17754     17756     17753     17754     17757
     17753     17758     17759     17753     17758     17760     17753     17758     17761
     17754     17753     17758     17755     17754     17756     17755     17754     17757
     17756     17754     17757     17758     17761     17762     17758     17761     17763
     17758     17761     17764     17759     17758     17760     17759     17758     17761
     17760     17758     17761     17761     17764     17765     17761     17764     17766
     17762     17761     17763     17762     17761     17764     17763     17761     17764
     17764     17766     17767     17764     17766     17771     17765     17764     17766
     17766     17767     17768     17766     17767     17769     17766     17767     17770
     17766     17771     17772     17766     17771     17773     17766     17771     17774
     17767     17766     17771     17768     17767     17769     17768     17767     17770
     17769     17767     17770     17771     17774     17775     17771     17774     17776
     17772     17771     17773     17772     17771     17774     17773     17771     17774
     17775     17774     17776     17777     17779     17780     17777     17779     17781
     17777     17779     17782     17777     17783     17784     17777     17783     17785
     17777     17783     17786     17778     17777     17779     17778     17777     17783
     17779     17777     17783     17780     17779     17781     17780     17779     17782
     17781     17779     17782     17783     17786     17787     17783     17786     17788
     17783     17786     17789     17784     17783     17785     17784     17783     17786
     17785     17783     17786     17786     17789     17790     17786     17789     17791
     17786     17789     17792     17787     17786     17788     17787     17786     17789
     17788     17786     17789     17789     17792     17793     17789     17792     17794
     17789     17792     17798     17790     17789     17791     17790     17789     17792
     17791     17789     17792     17792     17794     17795     17792     17794     17796
     17792     17794     17797     17792     17798     17799     17792     17798     17800
     17792     17798     17801     17793     17792     17794     17793     17792     17798
     17794     17792     17798     17795     17794     17796     17795     17794     17797
     17796     17794     17797     17799     17798     17800     17799     17798     17801
     17800     17798     17801     17802     17803     17804     17802     17803     17805
     17802     17803     17818     17802     17806     17807     17802     17806     17808
     17802     17806     17809     17802     17810     17811     17802     17810     17812
     17802     17810     17813     17802     17814     17815     17802     17814     17816
     17802     17814     17817     17803     17802     17806     17803     17802     17810
     17803     17802     17814     17803     17818     17819     17803     17818     17820
     17803     17818     17824     17804     17803     17805     17804     17803     17818
     17805     17803     17818     17806     17802     17810     17806     17802     17814
     17807     17806     17808     17807     17806     17809     17808     17806     17809
     17810     17802     17814     17811     17810     17812     17811     17810     17813
     17812     17810     17813     17815     17814     17816     17815     17814     17817
     17816     17814     17817     17818     17824     17821     17819     17818     17820
     17819     17818     17824     17820     17818     17824     17821     17825     17826
     17822     17821     17823     17822     17821     17824     17822     17821     17825
     17823     17821     17824     17823     17821     17825     17824     17821     17825
     17825     17826     17827     17825     17826     17828     17825     17826     17829
     17826     17829     17830     17826     17829     17831     17826     17829     17837
     17827     17826     17828     17827     17826     17829     17828     17826     17829
     17829     17831     17832     17829     17837     17838     17829     17837     17839
     17829     17837     17840     17830     17829     17831     17830     17829     17837
     17831     17829     17837     17831     17832     17833     17831     17832     17834
     17832     17834     17835     17832     17834     17836     17832     17834     17846
     17833     17832     17834     17834     17846     17847     17834     17846     17848
     17834     17846     17849     17835     17834     17836     17835     17834     17846
     17836     17834     17846     17837     17840     17841     17838     17837     17839
     17838     17837     17840     17839     17837     17840     17840     17841     17842
     17840     17841     17843     17841     17843     17844     17841     17843     17845
     17841     17843     17893     17842     17841     17843     17843     17893     17894
     17843     17893     17895     17843     17893     17896     17844     17843     17845
     17844     17843     17893     17845     17843     17893     17846     17849     17850
     17846     17849     17851     17846     17849     17852     17847     17846     17848
     17847     17846     17849     17848     17846     17849     17849     17852     17853
     17849     17852     17854     17849     17852     17855     17850     17849     17851
     17850     17849     17852     17851     17849     17852     17852     17855     17856
     17852     17855     17857     17852     17855     17858     17853     17852     17854
     17853     17852     17855     17854     17852     17855     17855     17858     17859
     17855     17858     17860     17855     17858     17861     17856     17855     17857
     17856     17855     17858     17857     17855     17858     17858     17861     17862
     17858     17861     17863     17858     17861     17864     17859     17858     17860
     17859     17858     17861     17860     17858     17861     17861     17864     17865
     17861     17864     17866     17862     17861     17863     17862     17861     17864
     17863     17861     17864     17864     17866     17867     17864     17866     17868
     17865     17864     17866     17866     17868     17869     17866     17868     17870
     17866     17868     17871     17867     17866     17868     17868     17871     17872
     17868     17871     17873     17868     17871     17874     17869     17868     17870
     17869     17868     17871     17870     17868     17871     17871     17874     17875
     17871     17874     17876     17871     17874     17877     17872     17871     17873
     17872     17871     17874     17873     17871     17874     17874     17877     17878
     17874     17877     17879     17874     17877     17880     17875     17874     17876
     17875     17874     17877     17876     17874     17877     17877     17880     17881
     17877     17880     17882     17877     17880     17883     17878     17877     17879
     17878     17877     17880     17879     17877     17880     17880     17883     17884
     17880     17883     17885     17880     17883     17886     17881     17880     17882
     17881     17880     17883     17882     17880     17883     17883     17886     17887
     17883     17886     17888     17883     17886     17889     17884     17883     17885
     17884     17883     17886     17885     17883     17886     17886     17889     17890
     17886     17889     17891     17886     17889     17892     17887     17886     17888
     17887     17886     17889     17888     17886     17889     17890     17889     17891
     17890     17889     17892     17891     17889     17892     17893     17896     17897
     17893     17896     17898     17893     17896     17899     17894     17893     17895
     17894     17893     17896     17895     17893     17896     17896     17899     17900
     17896     17899     17901     17896     17899     17902     17897     17896     17898
     17897     17896     17899     17898     17896     17899     17899     17902     17903
     17899     17902     17904     17899     17902     17905     17900     17899     17901
     17900     17899     17902     17901     17899     17902     17902     17905     17906
     17902     17905     17907     17902     17905     17908     17903     17902     17904
     17903     17902     17905     17904     17902     17905     17905     17908     17909
     17905     17908     17910     17905     17908     17911     17906     17905     17907
     17906     17905     17908     17907     17905     17908     17908     17911     17912
     17908     17911     17913     17909     17908     17910     17909     17908     17911
     17910     17908     17911     17911     17913     17914     17911     17913     17915
     17912     17911     17913     17913     17915     17916     17913     17915     17917
     17913     17915     17918     17914     17913     17915     17915     17918     17919
     17915     17918     17920     17915     17918     17921     17916     17915     17917
     17916     17915     17918     17917     17915     17918     17918     17921     17922
     17918     17921     17923     17918     17921     17924     17919     17918     17920
     17919     17918     17921     17920     17918     17921     17921     17924     17925
     17921     17924     17926     17921     17924     17927     17922     17921     17923
     17922     17921     17924     17923     17921     17924     17924     17927     17928
     17924     17927     17929     17924     17927     17930     17925     17924     17926
     17925     17924     17927     17926     17924     17927     17927     17930     17931
     17927     17930     17932     17927     17930     17933     17928     17927     17929
     17928     17927     17930     17929     17927     17930     17930     17933     17934
     17930     17933     17935     17930     17933     17936     17931     17930     17932
     17931     17930     17933     17932     17930     17933     17933     17936     17937
     17933     17936     17938     17933     17936     17939     17934     17933     17935
     17934     17933     17936     17935     17933     17936     17937     17936     17938
     17937     17936     17939     17938     17936     17939     17940     17941     17942
     17940     17941     17943     17940     17941     17944     17940     17945     17946
     17940     17945     17947     17940     17945     17948     17940     17949     17950
     17940     17949     17951     17940     17949     17952     17940     17953     17954
     17940     17953     17955     17940     17953     17956     17941     17940     17945
     17941     17940     17949     17941     17940     17953     17942     17941     17943
     17942     17941     17944     17943     17941     17944     17945     17940     17949
     17945     17940     17953     17946     17945     17947     17946     17945     17948
     17947     17945     17948     17949     17940     17953     17950     17949     17951
     17950     17949     17952     17951     17949     17952     17953     17956     17957
     17953     17956     17958     17953     17956     17963     17954     17953     17955
     17954     17953     17956     17955     17953     17956     17956     17963     17959
     17957     17956     17958     17957     17956     17963     17958     17956     17963
     17959     17962     17964     17960     17959     17961     17960     17959     17962
     17960     17959     17963     17961     17959     17962     17961     17959     17963
     17962     17959     17963     17962     17964     17965     17962     17964     17966
     17962     17964     17969     17964     17969     17967     17964     17969     17970
     17964     17969     17971     17965     17964     17966     17965     17964     17969
     17966     17964     17969     17967     17969     17970     17967     17969     17971
     17967     18019     18020     17967     18019     18021     17968     17967     17969
     17968     17967     18019     17969     17967     18019     17969     17971     17972
     17969     17971     17973     17969     17971     17975     17970     17969     17971
     17971     17973     17974     17971     17975     17976     17971     17975     17977
     17972     17971     17973     17972     17971     17975     17973     17971     17975
     17975     17977     17978     17975     17977     17979     17976     17975     17977
     17977     17979     17980     17977     17979     17981     17977     17979     17982
     17978     17977     17979     17979     17982     17983     17979     17982     17984
     17979     17982     17985     17980     17979     17981     17980     17979     17982
     17981     17979     17982     17982     17985     17986     17982     17985     17987
     17982     17985     17988     17983     17982     17984     17983     17982     17985
     17984     17982     17985     17985     17988     17989     17985     17988     17990
     17985     17988     17991     17986     17985     17987     17986     17985     17988
     17987     17985     17988     17988     17991     17992     17988     17991     17993
     17988     17991     17994     17989     17988     17990     17989     17988     17991
     17990     17988     17991     17991     17994     17995     17991     17994     17996
     17991     17994     17997     17992     17991     17993     17992     17991     17994
     17993     17991     17994     17994     17997     17998     17994     17997     17999
     17994     17997     18000     17995     17994     17996     17995     17994     17997
     17996     17994     17997     17997     18000     18001     17997     18000     18002
     17997     18000     18003     17998     17997     17999     17998     17997     18000
     17999     17997     18000     18000     18003     18004     18000     18003     18005
     18000     18003     18006     18001     18000     18002     18001     18000     18003
     18002     18000     18003     18003     18006     18007     18003     18006     18008
     18003     18006     18009     18004     18003     18005     18004     18003     18006
     18005     18003     18006     18006     18009     18010     18006     18009     18011
     18006     18009     18012     18007     18006     18008     18007     18006     18009
     18008     18006     18009     18009     18012     18013     18009     18012     18014
     18009     18012     18015     18010     18009     18011     18010     18009     18012
     18011     18009     18012     18012     18015     18016     18012     18015     18017
     18012     18015     18018     18013     18012     18014     18013     18012     18015
     18014     18012     18015     18016     18015     18017     18016     18015     18018
     18017     18015     18018     18019     18021     18022     18019     18021     18023
     18019     18021     18024     18020     18019     18021     18021     18024     18025
     18021     18024     18026     18021     18024     18027     18022     18021     18023
     18022     18021     18024     18023     18021     18024     18024     18027     18028
     18024     18027     18029     18024     18027     18030     18025     18024     18026
     18025     18024     18027     18026     18024     18027     18027     18030     18031
     18027     18030     18032     18027     18030     18033     18028     18027     18029
     18028     18027     18030     18029     18027     18030     18030     18033     18034
     18030     18033     18035     18030     18033     18036     18031     18030     18032
     18031     18030     18033     18032     18030     18033     18033     18036     18037
     18033     18036     18038     18033     18036     18039     18034     18033     18035
     18034     18033     18036     18035     18033     18036     18036     18039     18040
     18036     18039     18041     18036     18039     18042     18037     18036     18038
     18037     18036     18039     18038     18036     18039     18039     18042     18043
     18039     18042     18044     18039     18042     18045     18040     18039     18041
     18040     18039     18042     18041     18039     18042     18042     18045     18046
     18042     18045     18047     18042     18045     18048     18043     18042     18044
     18043     18042     18045     18044     18042     18045     18045     18048     18049
     18045     18048     18050     18045     18048     18051     18046     18045     18047
     18046     18045     18048     18047     18045     18048     18048     18051     18052
     18048     18051     18053     18048     18051     18054     18049     18048     18050
     18049     18048     18051     18050     18048     18051     18051     18054     18055
     18051     18054     18056     18051     18054     18057     18052     18051     18053
     18052     18051     18054     18053     18051     18054     18054     18057     18058
     18054     18057     18059     18054     18057     18060     18055     18054     18056
     18055     18054     18057     18056     18054     18057     18057     18060     18061
     18057     18060     18062     18057     18060     18063     18058     18057     18059
     18058     18057     18060     18059     18057     18060     18060     18063     18064
     18060     18063     18065     18060     18063     18066     18061     18060     18062
     18061     18060     18063     18062     18060     18063     18063     18066     18067
     18063     18066     18068     18063     18066     18069     18064     18063     18065
     18064     18063     18066     18065     18063     18066     18066     18069     18070
     18066     18069     18071     18066     18069     18072     18067     18066     18068
     18067     18066     18069     18068     18066     18069     18069     18072     18073
     18069     18072     18074     18069     18072     18075     18070     18069     18071
     18070     18069     18072     18071     18069     18072     18072     18075     18076
     18072     18075     18077     18072     18075     18078     18073     18072     18074
     18073     18072     18075     18074     18072     18075     18075     18078     18079
     18075     18078     18080     18075     18078     18081     18076     18075     18077
     18076     18075     18078     18077     18075     18078     18078     18081     18082
     18078     18081     18083     18078     18081     18084     18079     18078     18080
     18079     18078     18081     18080     18078     18081     18081     18084     18085
     18081     18084     18086     18081     18084     18087     18082     18081     18083
     18082     18081     18084     18083     18081     18084     18085     18084     18086
     18085     18084     18087     18086     18084     18087     18088     18092     18093
     18088     18092     18094     18088     18092     18095     18089     18088     18090
     18089     18088     18091     18089     18088     18092     18090     18088     18091
     18090     18088     18092     18091     18088     18092     18092     18095     18096
     18092     18095     18097     18092     18095     18102     18093     18092     18094
     18093     18092     18095     18094     18092     18095     18095     18102     18098
     18096     18095     18097     18096     18095     18102     18097     18095     18102
     18098     18101     18103     18099     18098     18100     18099     18098     18101
     18099     18098     18102     18100     18098     18101     18100     18098     18102
     18101     18098     18102     18101     18103     18104     18101     18103     18105
     18101     18103     18106     18103     18106     18107     18103     18106     18108
     18103     18106     18114     18104     18103     18105     18104     18103     18106
     18105     18103     18106     18106     18108     18109     18106     18114     18115
     18106     18114     18116     18106     18114     18117     18107     18106     18108
     18107     18106     18114     18108     18106     18114     18108     18109     18110
     18108     18109     18111     18109     18111     18112     18109     18111     18113
     18109     18111     18123     18110     18109     18111     18111     18123     18124
     18111     18123     18125     18111     18123     18126     18112     18111     18113
     18112     18111     18123     18113     18111     18123     18114     18117     18118
     18115     18114     18116     18115     18114     18117     18116     18114     18117
     18117     18118     18119     18117     18118     18120     18118     18120     18121
     18118     18120     18122     18118     18120     18170     18119     18118     18120
     18120     18170     18171     18120     18170     18172     18120     18170     18173
     18121     18120     18122     18121     18120     18170     18122     18120     18170
     18123     18126     18127     18123     18126     18128     18123     18126     18129
     18124     18123     18125     18124     18123     18126     18125     18123     18126
     18126     18129     18130     18126     18129     18131     18126     18129     18132
     18127     18126     18128     18127     18126     18129     18128     18126     18129
     18129     18132     18133     18129     18132     18134     18129     18132     18135
     18130     18129     18131     18130     18129     18132     18131     18129     18132
     18132     18135     18136     18132     18135     18137     18132     18135     18138
     18133     18132     18134     18133     18132     18135     18134     18132     18135
     18135     18138     18139     18135     18138     18140     18135     18138     18141
     18136     18135     18137     18136     18135     18138     18137     18135     18138
     18138     18141     18142     18138     18141     18143     18139     18138     18140
     18139     18138     18141     18140     18138     18141     18141     18143     18144
     18141     18143     18145     18142     18141     18143     18143     18145     18146
     18143     18145     18147     18143     18145     18148     18144     18143     18145
     18145     18148     18149     18145     18148     18150     18145     18148     18151
     18146     18145     18147     18146     18145     18148     18147     18145     18148
     18148     18151     18152     18148     18151     18153     18148     18151     18154
     18149     18148     18150     18149     18148     18151     18150     18148     18151
     18151     18154     18155     18151     18154     18156     18151     18154     18157
     18152     18151     18153     18152     18151     18154     18153     18151     18154
     18154     18157     18158     18154     18157     18159     18154     18157     18160
     18155     18154     18156     18155     18154     18157     18156     18154     18157
     18157     18160     18161     18157     18160     18162     18157     18160     18163
     18158     18157     18159     18158     18157     18160     18159     18157     18160
     18160     18163     18164     18160     18163     18165     18160     18163     18166
     18161     18160     18162     18161     18160     18163     18162     18160     18163
     18163     18166     18167     18163     18166     18168     18163     18166     18169
     18164     18163     18165     18164     18163     18166     18165     18163     18166
     18167     18166     18168     18167     18166     18169     18168     18166     18169
     18170     18173     18174     18170     18173     18175     18170     18173     18176
     18171     18170     18172     18171     18170     18173     18172     18170     18173
     18173     18176     18177     18173     18176     18178     18173     18176     18179
     18174     18173     18175     18174     18173     18176     18175     18173     18176
     18176     18179     18180     18176     18179     18181     18176     18179     18182
     18177     18176     18178     18177     18176     18179     18178     18176     18179
     18179     18182     18183     18179     18182     18184     18179     18182     18185
     18180     18179     18181     18180     18179     18182     18181     18179     18182
     18182     18185     18186     18182     18185     18187     18182     18185     18188
     18183     18182     18184     18183     18182     18185     18184     18182     18185
     18185     18188     18189     18185     18188     18190     18186     18185     18187
     18186     18185     18188     18187     18185     18188     18188     18190     18191
     18188     18190     18192     18189     18188     18190     18190     18192     18193
     18190     18192     18194     18190     18192     18195     18191     18190     18192
     18192     18195     18196     18192     18195     18197     18192     18195     18198
     18193     18192     18194     18193     18192     18195     18194     18192     18195
     18195     18198     18199     18195     18198     18200     18195     18198     18201
     18196     18195     18197     18196     18195     18198     18197     18195     18198
     18198     18201     18202     18198     18201     18203     18198     18201     18204
     18199     18198     18200     18199     18198     18201     18200     18198     18201
     18201     18204     18205     18201     18204     18206     18201     18204     18207
     18202     18201     18203     18202     18201     18204     18203     18201     18204
     18204     18207     18208     18204     18207     18209     18204     18207     18210
     18205     18204     18206     18205     18204     18207     18206     18204     18207
     18207     18210     18211     18207     18210     18212     18207     18210     18213
     18208     18207     18209     18208     18207     18210     18209     18207     18210
     18210     18213     18214     18210     18213     18215     18210     18213     18216
     18211     18210     18212     18211     18210     18213     18212     18210     18213
     18214     18213     18215     18214     18213     18216     18215     18213     18216
     18217     18221     18222     18217     18221     18223     18217     18221     18224
     18218     18217     18219     18218     18217     18220     18218     18217     18221
     18219     18217     18220     18219     18217     18221     18220     18217     18221
     18221     18224     18225     18221     18224     18226     18221     18224     18231
     18222     18221     18223     18222     18221     18224     18223     18221     18224
     18224     18231     18227     18225     18224     18226     18225     18224     18231
     18226     18224     18231     18227     18230     18232     18228     18227     18229
     18228     18227     18230     18228     18227     18231     18229     18227     18230
     18229     18227     18231     18230     18227     18231     18230     18232     18233
     18230     18232     18234     18230     18232     18235     18232     18235     18236
     18232     18235     18237     18232     18235     18243     18233     18232     18234
     18233     18232     18235     18234     18232     18235     18235     18237     18238
     18235     18243     18244     18235     18243     18245     18235     18243     18246
     18236     18235     18237     18236     18235     18243     18237     18235     18243
     18237     18238     18239     18237     18238     18240     18238     18240     18241
     18238     18240     18242     18238     18240     18252     18239     18238     18240
     18240     18252     18253     18240     18252     18254     18240     18252     18255
     18241     18240     18242     18241     18240     18252     18242     18240     18252
     18243     18246     18247     18244     18243     18245     18244     18243     18246
     18245     18243     18246     18246     18247     18248     18246     18247     18249
     18247     18249     18250     18247     18249     18251     18247     18249     18299
     18248     18247     18249     18249     18299     18300     18249     18299     18301
     18249     18299     18302     18250     18249     18251     18250     18249     18299
     18251     18249     18299     18252     18255     18256     18252     18255     18257
     18252     18255     18258     18253     18252     18254     18253     18252     18255
     18254     18252     18255     18255     18258     18259     18255     18258     18260
     18255     18258     18261     18256     18255     18257     18256     18255     18258
     18257     18255     18258     18258     18261     18262     18258     18261     18263
     18258     18261     18264     18259     18258     18260     18259     18258     18261
     18260     18258     18261     18261     18264     18265     18261     18264     18266
     18261     18264     18267     18262     18261     18263     18262     18261     18264
     18263     18261     18264     18264     18267     18268     18264     18267     18269
     18264     18267     18270     18265     18264     18266     18265     18264     18267
     18266     18264     18267     18267     18270     18271     18267     18270     18272
     18268     18267     18269     18268     18267     18270     18269     18267     18270
     18270     18272     18273     18270     18272     18274     18271     18270     18272
     18272     18274     18275     18272     18274     18276     18272     18274     18277
     18273     18272     18274     18274     18277     18278     18274     18277     18279
     18274     18277     18280     18275     18274     18276     18275     18274     18277
     18276     18274     18277     18277     18280     18281     18277     18280     18282
     18277     18280     18283     18278     18277     18279     18278     18277     18280
     18279     18277     18280     18280     18283     18284     18280     18283     18285
     18280     18283     18286     18281     18280     18282     18281     18280     18283
     18282     18280     18283     18283     18286     18287     18283     18286     18288
     18283     18286     18289     18284     18283     18285     18284     18283     18286
     18285     18283     18286     18286     18289     18290     18286     18289     18291
     18286     18289     18292     18287     18286     18288     18287     18286     18289
     18288     18286     18289     18289     18292     18293     18289     18292     18294
     18289     18292     18295     18290     18289     18291     18290     18289     18292
     18291     18289     18292     18292     18295     18296     18292     18295     18297
     18292     18295     18298     18293     18292     18294     18293     18292     18295
     18294     18292     18295     18296     18295     18297     18296     18295     18298
     18297     18295     18298     18299     18302     18303     18299     18302     18304
     18299     18302     18305     18300     18299     18301     18300     18299     18302
     18301     18299     18302     18302     18305     18306     18302     18305     18307
     18302     18305     18308     18303     18302     18304     18303     18302     18305
     18304     18302     18305     18305     18308     18309     18305     18308     18310
     18305     18308     18311     18306     18305     18307     18306     18305     18308
     18307     18305     18308     18308     18311     18312     18308     18311     18313
     18308     18311     18314     18309     18308     18310     18309     18308     18311
     18310     18308     18311     18311     18314     18315     18311     18314     18316
     18311     18314     18317     18312     18311     18313     18312     18311     18314
     18313     18311     18314     18314     18317     18318     18314     18317     18319
     18315     18314     18316     18315     18314     18317     18316     18314     18317
     18317     18319     18320     18317     18319     18321     18318     18317     18319
     18319     18321     18322     18319     18321     18323     18319     18321     18324
     18320     18319     18321     18321     18324     18325     18321     18324     18326
     18321     18324     18327     18322     18321     18323     18322     18321     18324
     18323     18321     18324     18324     18327     18328     18324     18327     18329
     18324     18327     18330     18325     18324     18326     18325     18324     18327
     18326     18324     18327     18327     18330     18331     18327     18330     18332
     18327     18330     18333     18328     18327     18329     18328     18327     18330
     18329     18327     18330     18330     18333     18334     18330     18333     18335
     18330     18333     18336     18331     18330     18332     18331     18330     18333
     18332     18330     18333     18333     18336     18337     18333     18336     18338
     18333     18336     18339     18334     18333     18335     18334     18333     18336
     18335     18333     18336     18336     18339     18340     18336     18339     18341
     18336     18339     18342     18337     18336     18338     18337     18336     18339
     18338     18336     18339     18339     18342     18343     18339     18342     18344
     18339     18342     18345     18340     18339     18341     18340     18339     18342
     18341     18339     18342     18343     18342     18344     18343     18342     18345
     18344     18342     18345     18346     18348     18349     18346     18350     18351
     18346     18350     18352     18346     18350     18353     18346     18392     18389
     18346     18392     18393     18346     18392     18394     18347     18346     18348
     18347     18346     18350     18347     18346     18392     18348     18346     18350
     18348     18346     18392     18350     18346     18392     18350     18353     18354
     18350     18353     18384     18351     18350     18352     18351     18350     18353
     18352     18350     18353     18353     18354     18355     18353     18354     18356
     18353     18384     18382     18353     18384     18385     18353     18384     18389
     18354     18353     18384     18354     18356     18357     18354     18356     18358
     18354     18356     18359     18355     18354     18356     18356     18359     18360
     18356     18359     18361     18356     18359     18382     18357     18356     18358
     18357     18356     18359     18358     18356     18359     18359     18361     18362
     18359     18361     18363     18359     18361     18371     18359     18382     18379
     18359     18382     18383     18359     18382     18384     18360     18359     18361
     18360     18359     18382     18361     18359     18382     18361     18363     18364
     18361     18363     18365     18361     18363     18366     18361     18371     18369
     18361     18371     18372     18361     18371     18376     18362     18361     18363
     18362     18361     18371     18363     18361     18371     18363     18366     18367
     18363     18366     18368     18363     18366     18369     18364     18363     18365
     18364     18363     18366     18365     18363     18366     18366     18369     18370
     18366     18369     18371     18366     18369     18395     18367     18366     18368
     18367     18366     18369     18368     18366     18369     18369     18371     18372
     18369     18371     18376     18369     18395     18396     18369     18395     18397
     18369     18395     18401     18370     18369     18371     18370     18369     18395
     18371     18369     18395     18371     18372     18373     18371     18372     18374
     18371     18372     18375     18371     18376     18377     18371     18376     18378
     18371     18376     18379     18372     18371     18376     18373     18372     18374
     18373     18372     18375     18374     18372     18375     18376     18379     18380
     18376     18379     18381     18376     18379     18382     18377     18376     18378
     18377     18376     18379     18378     18376     18379     18379     18382     18383
     18379     18382     18384     18380     18379     18381     18380     18379     18382
     18381     18379     18382     18382     18384     18385     18382     18384     18389
     18383     18382     18384     18384     18385     18386     18384     18385     18387
     18384     18385     18388     18384     18389     18390     18384     18389     18391
     18384     18389     18392     18385     18384     18389     18386     18385     18387
     18386     18385     18388     18387     18385     18388     18389     18392     18393
     18389     18392     18394     18390     18389     18391     18390     18389     18392
     18391     18389     18392     18393     18392     18394     18395     18397     18398
     18395     18397     18399     18395     18397     18400     18395     18401     18402
     18395     18401     18403     18395     18401     18404     18396     18395     18397
     18396     18395     18401     18397     18395     18401     18398     18397     18399
     18398     18397     18400     18399     18397     18400     18401     18404     18405
     18401     18404     18406     18401     18404     18407     18402     18401     18403
     18402     18401     18404     18403     18401     18404     18404     18407     18408
     18404     18407     18409     18404     18407     18410     18405     18404     18406
     18405     18404     18407     18406     18404     18407     18407     18410     18411
     18407     18410     18412     18407     18410     18416     18408     18407     18409
     18408     18407     18410     18409     18407     18410     18410     18412     18413
     18410     18412     18414     18410     18412     18415     18410     18416     18417
     18410     18416     18418     18410     18416     18419     18411     18410     18412
     18411     18410     18416     18412     18410     18416     18413     18412     18414
     18413     18412     18415     18414     18412     18415     18417     18416     18418
     18417     18416     18419     18418     18416     18419     18420     18424     18425
     18420     18424     18426     18420     18424     18427     18421     18420     18422
     18421     18420     18423     18421     18420     18424     18422     18420     18423
     18422     18420     18424     18423     18420     18424     18424     18427     18428
     18424     18427     18429     18424     18427     18434     18425     18424     18426
     18425     18424     18427     18426     18424     18427     18427     18434     18430
     18428     18427     18429     18428     18427     18434     18429     18427     18434
     18430     18433     18435     18431     18430     18432     18431     18430     18433
     18431     18430     18434     18432     18430     18433     18432     18430     18434
     18433     18430     18434     18433     18435     18436     18433     18435     18437
     18433     18435     18438     18435     18438     18439     18435     18438     18440
     18435     18438     18446     18436     18435     18437     18436     18435     18438
     18437     18435     18438     18438     18440     18441     18438     18446     18447
     18438     18446     18448     18438     18446     18449     18439     18438     18440
     18439     18438     18446     18440     18438     18446     18440     18441     18442
     18440     18441     18443     18441     18443     18444     18441     18443     18445
     18441     18443     18455     18442     18441     18443     18443     18455     18456
     18443     18455     18457     18443     18455     18458     18444     18443     18445
     18444     18443     18455     18445     18443     18455     18446     18449     18450
     18447     18446     18448     18447     18446     18449     18448     18446     18449
     18449     18450     18451     18449     18450     18452     18450     18452     18453
     18450     18452     18454     18450     18452     18502     18451     18450     18452
     18452     18502     18503     18452     18502     18504     18452     18502     18505
     18453     18452     18454     18453     18452     18502     18454     18452     18502
     18455     18458     18459     18455     18458     18460     18455     18458     18461
     18456     18455     18457     18456     18455     18458     18457     18455     18458
     18458     18461     18462     18458     18461     18463     18458     18461     18464
     18459     18458     18460     18459     18458     18461     18460     18458     18461
     18461     18464     18465     18461     18464     18466     18461     18464     18467
     18462     18461     18463     18462     18461     18464     18463     18461     18464
     18464     18467     18468     18464     18467     18469     18464     18467     18470
     18465     18464     18466     18465     18464     18467     18466     18464     18467
     18467     18470     18471     18467     18470     18472     18467     18470     18473
     18468     18467     18469     18468     18467     18470     18469     18467     18470
     18470     18473     18474     18470     18473     18475     18471     18470     18472
     18471     18470     18473     18472     18470     18473     18473     18475     18476
     18473     18475     18477     18474     18473     18475     18475     18477     18478
     18475     18477     18479     18475     18477     18480     18476     18475     18477
     18477     18480     18481     18477     18480     18482     18477     18480     18483
     18478     18477     18479     18478     18477     18480     18479     18477     18480
     18480     18483     18484     18480     18483     18485     18480     18483     18486
     18481     18480     18482     18481     18480     18483     18482     18480     18483
     18483     18486     18487     18483     18486     18488     18483     18486     18489
     18484     18483     18485     18484     18483     18486     18485     18483     18486
     18486     18489     18490     18486     18489     18491     18486     18489     18492
     18487     18486     18488     18487     18486     18489     18488     18486     18489
     18489     18492     18493     18489     18492     18494     18489     18492     18495
     18490     18489     18491     18490     18489     18492     18491     18489     18492
     18492     18495     18496     18492     18495     18497     18492     18495     18498
     18493     18492     18494     18493     18492     18495     18494     18492     18495
     18495     18498     18499     18495     18498     18500     18495     18498     18501
     18496     18495     18497     18496     18495     18498     18497     18495     18498
     18499     18498     18500     18499     18498     18501     18500     18498     18501
     18502     18505     18506     18502     18505     18507     18502     18505     18508
     18503     18502     18504     18503     18502     18505     18504     18502     18505
     18505     18508     18509     18505     18508     18510     18505     18508     18511
     18506     18505     18507     18506     18505     18508     18507     18505     18508
     18508     18511     18512     18508     18511     18513     18508     18511     18514
     18509     18508     18510     18509     18508     18511     18510     18508     18511
     18511     18514     18515     18511     18514     18516     18511     18514     18517
     18512     18511     18513     18512     18511     18514     18513     18511     18514
     18514     18517     18518     18514     18517     18519     18514     18517     18520
     18515     18514     18516     18515     18514     18517     18516     18514     18517
     18517     18520     18521     18517     18520     18522     18518     18517     18519
     18518     18517     18520     18519     18517     18520     18520     18522     18523
     18520     18522     18524     18521     18520     18522     18522     18524     18525
     18522     18524     18526     18522     18524     18527     18523     18522     18524
     18524     18527     18528     18524     18527     18529     18524     18527     18530
     18525     18524     18526     18525     18524     18527     18526     18524     18527
     18527     18530     18531     18527     18530     18532     18527     18530     18533
     18528     18527     18529     18528     18527     18530     18529     18527     18530
     18530     18533     18534     18530     18533     18535     18530     18533     18536
     18531     18530     18532     18531     18530     18533     18532     18530     18533
     18533     18536     18537     18533     18536     18538     18533     18536     18539
     18534     18533     18535     18534     18533     18536     18535     18533     18536
     18536     18539     18540     18536     18539     18541     18536     18539     18542
     18537     18536     18538     18537     18536     18539     18538     18536     18539
     18539     18542     18543     18539     18542     18544     18539     18542     18545
     18540     18539     18541     18540     18539     18542     18541     18539     18542
     18542     18545     18546     18542     18545     18547     18542     18545     18548
     18543     18542     18544     18543     18542     18545     18544     18542     18545
     18546     18545     18547     18546     18545     18548     18547     18545     18548
     18549     18550     18551     18549     18550     18552     18549     18550     18553
     18549     18554     18555     18549     18554     18556     18549     18554     18557
     18549     18558     18559     18549     18558     18560     18549     18558     18561
     18549     18562     18563     18549     18562     18564     18549     18562     18565
     18550     18549     18554     18550     18549     18558     18550     18549     18562
     18551     18550     18552     18551     18550     18553     18552     18550     18553
     18554     18549     18558     18554     18549     18562     18555     18554     18556
     18555     18554     18557     18556     18554     18557     18558     18549     18562
     18559     18558     18560     18559     18558     18561     18560     18558     18561
     18562     18565     18566     18562     18565     18567     18562     18565     18572
     18563     18562     18564     18563     18562     18565     18564     18562     18565
     18565     18572     18568     18566     18565     18567     18566     18565     18572
     18567     18565     18572     18568     18571     18573     18569     18568     18570
     18569     18568     18571     18569     18568     18572     18570     18568     18571
     18570     18568     18572     18571     18568     18572     18571     18573     18574
     18571     18573     18575     18571     18573     18578     18573     18578     18576
     18573     18578     18579     18573     18578     18580     18574     18573     18575
     18574     18573     18578     18575     18573     18578     18576     18578     18579
     18576     18578     18580     18576     18628     18629     18576     18628     18630
     18577     18576     18578     18577     18576     18628     18578     18576     18628
     18578     18580     18581     18578     18580     18582     18578     18580     18584
     18579     18578     18580     18580     18582     18583     18580     18584     18585
     18580     18584     18586     18581     18580     18582     18581     18580     18584
     18582     18580     18584     18584     18586     18587     18584     18586     18588
     18585     18584     18586     18586     18588     18589     18586     18588     18590
     18586     18588     18591     18587     18586     18588     18588     18591     18592
     18588     18591     18593     18588     18591     18594     18589     18588     18590
     18589     18588     18591     18590     18588     18591     18591     18594     18595
     18591     18594     18596     18591     18594     18597     18592     18591     18593
     18592     18591     18594     18593     18591     18594     18594     18597     18598
     18594     18597     18599     18594     18597     18600     18595     18594     18596
     18595     18594     18597     18596     18594     18597     18597     18600     18601
     18597     18600     18602     18597     18600     18603     18598     18597     18599
     18598     18597     18600     18599     18597     18600     18600     18603     18604
     18600     18603     18605     18600     18603     18606     18601     18600     18602
     18601     18600     18603     18602     18600     18603     18603     18606     18607
     18603     18606     18608     18603     18606     18609     18604     18603     18605
     18604     18603     18606     18605     18603     18606     18606     18609     18610
     18606     18609     18611     18606     18609     18612     18607     18606     18608
     18607     18606     18609     18608     18606     18609     18609     18612     18613
     18609     18612     18614     18609     18612     18615     18610     18609     18611
     18610     18609     18612     18611     18609     18612     18612     18615     18616
     18612     18615     18617     18612     18615     18618     18613     18612     18614
     18613     18612     18615     18614     18612     18615     18615     18618     18619
     18615     18618     18620     18615     18618     18621     18616     18615     18617
     18616     18615     18618     18617     18615     18618     18618     18621     18622
     18618     18621     18623     18618     18621     18624     18619     18618     18620
     18619     18618     18621     18620     18618     18621     18621     18624     18625
     18621     18624     18626     18621     18624     18627     18622     18621     18623
     18622     18621     18624     18623     18621     18624     18625     18624     18626
     18625     18624     18627     18626     18624     18627     18628     18630     18631
     18628     18630     18632     18628     18630     18633     18629     18628     18630
     18630     18633     18634     18630     18633     18635     18630     18633     18636
     18631     18630     18632     18631     18630     18633     18632     18630     18633
     18633     18636     18637     18633     18636     18638     18633     18636     18639
     18634     18633     18635     18634     18633     18636     18635     18633     18636
     18636     18639     18640     18636     18639     18641     18636     18639     18642
     18637     18636     18638     18637     18636     18639     18638     18636     18639
     18639     18642     18643     18639     18642     18644     18639     18642     18645
     18640     18639     18641     18640     18639     18642     18641     18639     18642
     18642     18645     18646     18642     18645     18647     18642     18645     18648
     18643     18642     18644     18643     18642     18645     18644     18642     18645
     18645     18648     18649     18645     18648     18650     18645     18648     18651
     18646     18645     18647     18646     18645     18648     18647     18645     18648
     18648     18651     18652     18648     18651     18653     18648     18651     18654
     18649     18648     18650     18649     18648     18651     18650     18648     18651
     18651     18654     18655     18651     18654     18656     18651     18654     18657
     18652     18651     18653     18652     18651     18654     18653     18651     18654
     18654     18657     18658     18654     18657     18659     18654     18657     18660
     18655     18654     18656     18655     18654     18657     18656     18654     18657
     18657     18660     18661     18657     18660     18662     18657     18660     18663
     18658     18657     18659     18658     18657     18660     18659     18657     18660
     18660     18663     18664     18660     18663     18665     18660     18663     18666
     18661     18660     18662     18661     18660     18663     18662     18660     18663
     18663     18666     18667     18663     18666     18668     18663     18666     18669
     18664     18663     18665     18664     18663     18666     18665     18663     18666
     18666     18669     18670     18666     18669     18671     18666     18669     18672
     18667     18666     18668     18667     18666     18669     18668     18666     18669
     18669     18672     18673     18669     18672     18674     18669     18672     18675
     18670     18669     18671     18670     18669     18672     18671     18669     18672
     18672     18675     18676     18672     18675     18677     18672     18675     18678
     18673     18672     18674     18673     18672     18675     18674     18672     18675
     18675     18678     18679     18675     18678     18680     18675     18678     18681
     18676     18675     18677     18676     18675     18678     18677     18675     18678
     18678     18681     18682     18678     18681     18683     18678     18681     18684
     18679     18678     18680     18679     18678     18681     18680     18678     18681
     18681     18684     18685     18681     18684     18686     18681     18684     18687
     18682     18681     18683     18682     18681     18684     18683     18681     18684
     18684     18687     18688     18684     18687     18689     18684     18687     18690
     18685     18684     18686     18685     18684     18687     18686     18684     18687
     18687     18690     18691     18687     18690     18692     18687     18690     18693
     18688     18687     18689     18688     18687     18690     18689     18687     18690
     18690     18693     18694     18690     18693     18695     18690     18693     18696
     18691     18690     18692     18691     18690     18693     18692     18690     18693
     18694     18693     18695     18694     18693     18696     18695     18693     18696
     18697     18698     18699     18697     18698     18700     18697     18698     18713
     18697     18701     18702     18697     18701     18703     18697     18701     18704
     18697     18705     18706     18697     18705     18707     18697     18705     18708
     18697     18709     18710     18697     18709     18711     18697     18709     18712
     18698     18697     18701     18698     18697     18705     18698     18697     18709
     18698     18713     18714     18698     18713     18715     18698     18713     18719
     18699     18698     18700     18699     18698     18713     18700     18698     18713
     18701     18697     18705     18701     18697     18709     18702     18701     18703
     18702     18701     18704     18703     18701     18704     18705     18697     18709
     18706     18705     18707     18706     18705     18708     18707     18705     18708
     18710     18709     18711     18710     18709     18712     18711     18709     18712
     18713     18719     18716     18714     18713     18715     18714     18713     18719
     18715     18713     18719     18716     18720     18721     18717     18716     18718
     18717     18716     18719     18717     18716     18720     18718     18716     18719
     18718     18716     18720     18719     18716     18720     18720     18721     18722
     18720     18721     18723     18720     18721     18724     18721     18724     18725
     18721     18724     18726     18721     18724     18732     18722     18721     18723
     18722     18721     18724     18723     18721     18724     18724     18726     18727
     18724     18732     18733     18724     18732     18734     18724     18732     18735
     18725     18724     18726     18725     18724     18732     18726     18724     18732
     18726     18727     18728     18726     18727     18729     18727     18729     18730
     18727     18729     18731     18727     18729     18741     18728     18727     18729
     18729     18741     18742     18729     18741     18743     18729     18741     18744
     18730     18729     18731     18730     18729     18741     18731     18729     18741
     18732     18735     18736     18733     18732     18734     18733     18732     18735
     18734     18732     18735     18735     18736     18737     18735     18736     18738
     18736     18738     18739     18736     18738     18740     18736     18738     18788
     18737     18736     18738     18738     18788     18789     18738     18788     18790
     18738     18788     18791     18739     18738     18740     18739     18738     18788
     18740     18738     18788     18741     18744     18745     18741     18744     18746
     18741     18744     18747     18742     18741     18743     18742     18741     18744
     18743     18741     18744     18744     18747     18748     18744     18747     18749
     18744     18747     18750     18745     18744     18746     18745     18744     18747
     18746     18744     18747     18747     18750     18751     18747     18750     18752
     18747     18750     18753     18748     18747     18749     18748     18747     18750
     18749     18747     18750     18750     18753     18754     18750     18753     18755
     18750     18753     18756     18751     18750     18752     18751     18750     18753
     18752     18750     18753     18753     18756     18757     18753     18756     18758
     18753     18756     18759     18754     18753     18755     18754     18753     18756
     18755     18753     18756     18756     18759     18760     18756     18759     18761
     18757     18756     18758     18757     18756     18759     18758     18756     18759
     18759     18761     18762     18759     18761     18763     18760     18759     18761
     18761     18763     18764     18761     18763     18765     18761     18763     18766
     18762     18761     18763     18763     18766     18767     18763     18766     18768
     18763     18766     18769     18764     18763     18765     18764     18763     18766
     18765     18763     18766     18766     18769     18770     18766     18769     18771
     18766     18769     18772     18767     18766     18768     18767     18766     18769
     18768     18766     18769     18769     18772     18773     18769     18772     18774
     18769     18772     18775     18770     18769     18771     18770     18769     18772
     18771     18769     18772     18772     18775     18776     18772     18775     18777
     18772     18775     18778     18773     18772     18774     18773     18772     18775
     18774     18772     18775     18775     18778     18779     18775     18778     18780
     18775     18778     18781     18776     18775     18777     18776     18775     18778
     18777     18775     18778     18778     18781     18782     18778     18781     18783
     18778     18781     18784     18779     18778     18780     18779     18778     18781
     18780     18778     18781     18781     18784     18785     18781     18784     18786
     18781     18784     18787     18782     18781     18783     18782     18781     18784
     18783     18781     18784     18785     18784     18786     18785     18784     18787
     18786     18784     18787     18788     18791     18792     18788     18791     18793
     18788     18791     18794     18789     18788     18790     18789     18788     18791
     18790     18788     18791     18791     18794     18795     18791     18794     18796
     18791     18794     18797     18792     18791     18793     18792     18791     18794
     18793     18791     18794     18794     18797     18798     18794     18797     18799
     18794     18797     18800     18795     18794     18796     18795     18794     18797
     18796     18794     18797     18797     18800     18801     18797     18800     18802
     18797     18800     18803     18798     18797     18799     18798     18797     18800
     18799     18797     18800     18800     18803     18804     18800     18803     18805
     18800     18803     18806     18801     18800     18802     18801     18800     18803
     18802     18800     18803     18803     18806     18807     18803     18806     18808
     18804     18803     18805     18804     18803     18806     18805     18803     18806
     18806     18808     18809     18806     18808     18810     18807     18806     18808
     18808     18810     18811     18808     18810     18812     18808     18810     18813
     18809     18808     18810     18810     18813     18814     18810     18813     18815
     18810     18813     18816     18811     18810     18812     18811     18810     18813
     18812     18810     18813     18813     18816     18817     18813     18816     18818
     18813     18816     18819     18814     18813     18815     18814     18813     18816
     18815     18813     18816     18816     18819     18820     18816     18819     18821
     18816     18819     18822     18817     18816     18818     18817     18816     18819
     18818     18816     18819     18819     18822     18823     18819     18822     18824
     18819     18822     18825     18820     18819     18821     18820     18819     18822
     18821     18819     18822     18822     18825     18826     18822     18825     18827
     18822     18825     18828     18823     18822     18824     18823     18822     18825
     18824     18822     18825     18825     18828     18829     18825     18828     18830
     18825     18828     18831     18826     18825     18827     18826     18825     18828
     18827     18825     18828     18828     18831     18832     18828     18831     18833
     18828     18831     18834     18829     18828     18830     18829     18828     18831
     18830     18828     18831     18832     18831     18833     18832     18831     18834
     18833     18831     18834     18835     18839     18840     18835     18839     18841
     18835     18839     18842     18836     18835     18837     18836     18835     18838
     18836     18835     18839     18837     18835     18838     18837     18835     18839
     18838     18835     18839     18839     18842     18843     18839     18842     18844
     18839     18842     18849     18840     18839     18841     18840     18839     18842
     18841     18839     18842     18842     18849     18845     18843     18842     18844
     18843     18842     18849     18844     18842     18849     18845     18848     18850
     18846     18845     18847     18846     18845     18848     18846     18845     18849
     18847     18845     18848     18847     18845     18849     18848     18845     18849
     18848     18850     18851     18848     18850     18852     18848     18850     18853
     18850     18853     18854     18850     18853     18855     18850     18853     18861
     18851     18850     18852     18851     18850     18853     18852     18850     18853
     18853     18855     18856     18853     18861     18862     18853     18861     18863
     18853     18861     18864     18854     18853     18855     18854     18853     18861
     18855     18853     18861     18855     18856     18857     18855     18856     18858
     18856     18858     18859     18856     18858     18860     18856     18858     18870
     18857     18856     18858     18858     18870     18871     18858     18870     18872
     18858     18870     18873     18859     18858     18860     18859     18858     18870
     18860     18858     18870     18861     18864     18865     18862     18861     18863
     18862     18861     18864     18863     18861     18864     18864     18865     18866
     18864     18865     18867     18865     18867     18868     18865     18867     18869
     18865     18867     18917     18866     18865     18867     18867     18917     18918
     18867     18917     18919     18867     18917     18920     18868     18867     18869
     18868     18867     18917     18869     18867     18917     18870     18873     18874
     18870     18873     18875     18870     18873     18876     18871     18870     18872
     18871     18870     18873     18872     18870     18873     18873     18876     18877
     18873     18876     18878     18873     18876     18879     18874     18873     18875
     18874     18873     18876     18875     18873     18876     18876     18879     18880
     18876     18879     18881     18876     18879     18882     18877     18876     18878
     18877     18876     18879     18878     18876     18879     18879     18882     18883
     18879     18882     18884     18879     18882     18885     18880     18879     18881
     18880     18879     18882     18881     18879     18882     18882     18885     18886
     18882     18885     18887     18882     18885     18888     18883     18882     18884
     18883     18882     18885     18884     18882     18885     18885     18888     18889
     18885     18888     18890     18886     18885     18887     18886     18885     18888
     18887     18885     18888     18888     18890     18891     18888     18890     18892
     18889     18888     18890     18890     18892     18893     18890     18892     18894
     18890     18892     18895     18891     18890     18892     18892     18895     18896
     18892     18895     18897     18892     18895     18898     18893     18892     18894
     18893     18892     18895     18894     18892     18895     18895     18898     18899
     18895     18898     18900     18895     18898     18901     18896     18895     18897
     18896     18895     18898     18897     18895     18898     18898     18901     18902
     18898     18901     18903     18898     18901     18904     18899     18898     18900
     18899     18898     18901     18900     18898     18901     18901     18904     18905
     18901     18904     18906     18901     18904     18907     18902     18901     18903
     18902     18901     18904     18903     18901     18904     18904     18907     18908
     18904     18907     18909     18904     18907     18910     18905     18904     18906
     18905     18904     18907     18906     18904     18907     18907     18910     18911
     18907     18910     18912     18907     18910     18913     18908     18907     18909
     18908     18907     18910     18909     18907     18910     18910     18913     18914
     18910     18913     18915     18910     18913     18916     18911     18910     18912
     18911     18910     18913     18912     18910     18913     18914     18913     18915
     18914     18913     18916     18915     18913     18916     18917     18920     18921
     18917     18920     18922     18917     18920     18923     18918     18917     18919
     18918     18917     18920     18919     18917     18920     18920     18923     18924
     18920     18923     18925     18920     18923     18926     18921     18920     18922
     18921     18920     18923     18922     18920     18923     18923     18926     18927
     18923     18926     18928     18923     18926     18929     18924     18923     18925
     18924     18923     18926     18925     18923     18926     18926     18929     18930
     18926     18929     18931     18926     18929     18932     18927     18926     18928
     18927     18926     18929     18928     18926     18929     18929     18932     18933
     18929     18932     18934     18929     18932     18935     18930     18929     18931
     18930     18929     18932     18931     18929     18932     18932     18935     18936
     18932     18935     18937     18933     18932     18934     18933     18932     18935
     18934     18932     18935     18935     18937     18938     18935     18937     18939
     18936     18935     18937     18937     18939     18940     18937     18939     18941
     18937     18939     18942     18938     18937     18939     18939     18942     18943
     18939     18942     18944     18939     18942     18945     18940     18939     18941
     18940     18939     18942     18941     18939     18942     18942     18945     18946
     18942     18945     18947     18942     18945     18948     18943     18942     18944
     18943     18942     18945     18944     18942     18945     18945     18948     18949
     18945     18948     18950     18945     18948     18951     18946     18945     18947
     18946     18945     18948     18947     18945     18948     18948     18951     18952
     18948     18951     18953     18948     18951     18954     18949     18948     18950
     18949     18948     18951     18950     18948     18951     18951     18954     18955
     18951     18954     18956     18951     18954     18957     18952     18951     18953
     18952     18951     18954     18953     18951     18954     18954     18957     18958
     18954     18957     18959     18954     18957     18960     18955     18954     18956
     18955     18954     18957     18956     18954     18957     18957     18960     18961
     18957     18960     18962     18957     18960     18963     18958     18957     18959
     18958     18957     18960     18959     18957     18960     18961     18960     18962
     18961     18960     18963     18962     18960     18963     18964     18966     18967
     18964     18968     18969     18964     18968     18970     18964     18968     18971
     18964     19010     19007     18964     19010     19011     18964     19010     19012
     18965     18964     18966     18965     18964     18968     18965     18964     19010
     18966     18964     18968     18966     18964     19010     18968     18964     19010
     18968     18971     18972     18968     18971     19002     18969     18968     18970
     18969     18968     18971     18970     18968     18971     18971     18972     18973
     18971     18972     18974     18971     19002     19000     18971     19002     19003
     18971     19002     19007     18972     18971     19002     18972     18974     18975
     18972     18974     18976     18972     18974     18977     18973     18972     18974
     18974     18977     18978     18974     18977     18979     18974     18977     19000
     18975     18974     18976     18975     18974     18977     18976     18974     18977
     18977     18979     18980     18977     18979     18981     18977     18979     18989
     18977     19000     18997     18977     19000     19001     18977     19000     19002
     18978     18977     18979     18978     18977     19000     18979     18977     19000
     18979     18981     18982     18979     18981     18983     18979     18981     18984
     18979     18989     18987     18979     18989     18990     18979     18989     18994
     18980     18979     18981     18980     18979     18989     18981     18979     18989
     18981     18984     18985     18981     18984     18986     18981     18984     18987
     18982     18981     18983     18982     18981     18984     18983     18981     18984
     18984     18987     18988     18984     18987     18989     18984     18987     19013
     18985     18984     18986     18985     18984     18987     18986     18984     18987
     18987     18989     18990     18987     18989     18994     18987     19013     19014
     18987     19013     19015     18987     19013     19019     18988     18987     18989
     18988     18987     19013     18989     18987     19013     18989     18990     18991
     18989     18990     18992     18989     18990     18993     18989     18994     18995
     18989     18994     18996     18989     18994     18997     18990     18989     18994
     18991     18990     18992     18991     18990     18993     18992     18990     18993
     18994     18997     18998     18994     18997     18999     18994     18997     19000
     18995     18994     18996     18995     18994     18997     18996     18994     18997
     18997     19000     19001     18997     19000     19002     18998     18997     18999
     18998     18997     19000     18999     18997     19000     19000     19002     19003
     19000     19002     19007     19001     19000     19002     19002     19003     19004
     19002     19003     19005     19002     19003     19006     19002     19007     19008
     19002     19007     19009     19002     19007     19010     19003     19002     19007
     19004     19003     19005     19004     19003     19006     19005     19003     19006
     19007     19010     19011     19007     19010     19012     19008     19007     19009
     19008     19007     19010     19009     19007     19010     19011     19010     19012
     19013     19015     19016     19013     19015     19017     19013     19015     19018
     19013     19019     19020     19013     19019     19021     19013     19019     19022
     19014     19013     19015     19014     19013     19019     19015     19013     19019
     19016     19015     19017     19016     19015     19018     19017     19015     19018
     19019     19022     19023     19019     19022     19024     19019     19022     19025
     19020     19019     19021     19020     19019     19022     19021     19019     19022
     19022     19025     19026     19022     19025     19027     19022     19025     19028
     19023     19022     19024     19023     19022     19025     19024     19022     19025
     19025     19028     19029     19025     19028     19030     19025     19028     19034
     19026     19025     19027     19026     19025     19028     19027     19025     19028
     19028     19030     19031     19028     19030     19032     19028     19030     19033
     19028     19034     19035     19028     19034     19036     19028     19034     19037
     19029     19028     19030     19029     19028     19034     19030     19028     19034
     19031     19030     19032     19031     19030     19033     19032     19030     19033
     19035     19034     19036     19035     19034     19037     19036     19034     19037
     19038     19039     19040     19038     19039     19041     19038     19039     19042
     19038     19043     19044     19038     19043     19045     19038     19043     19046
     19038     19047     19048     19038     19047     19049     19038     19047     19050
     19038     19051     19052     19038     19051     19053     19038     19051     19054
     19039     19038     19043     19039     19038     19047     19039     19038     19051
     19040     19039     19041     19040     19039     19042     19041     19039     19042
     19043     19038     19047     19043     19038     19051     19044     19043     19045
     19044     19043     19046     19045     19043     19046     19047     19038     19051
     19048     19047     19049     19048     19047     19050     19049     19047     19050
     19051     19054     19055     19051     19054     19056     19051     19054     19061
     19052     19051     19053     19052     19051     19054     19053     19051     19054
     19054     19061     19057     19055     19054     19056     19055     19054     19061
     19056     19054     19061     19057     19060     19062     19058     19057     19059
     19058     19057     19060     19058     19057     19061     19059     19057     19060
     19059     19057     19061     19060     19057     19061     19060     19062     19063
     19060     19062     19064     19060     19062     19067     19062     19067     19065
     19062     19067     19068     19062     19067     19069     19063     19062     19064
     19063     19062     19067     19064     19062     19067     19065     19067     19068
     19065     19067     19069     19065     19117     19118     19065     19117     19119
     19066     19065     19067     19066     19065     19117     19067     19065     19117
     19067     19069     19070     19067     19069     19071     19067     19069     19073
     19068     19067     19069     19069     19071     19072     19069     19073     19074
     19069     19073     19075     19070     19069     19071     19070     19069     19073
     19071     19069     19073     19073     19075     19076     19073     19075     19077
     19074     19073     19075     19075     19077     19078     19075     19077     19079
     19075     19077     19080     19076     19075     19077     19077     19080     19081
     19077     19080     19082     19077     19080     19083     19078     19077     19079
     19078     19077     19080     19079     19077     19080     19080     19083     19084
     19080     19083     19085     19080     19083     19086     19081     19080     19082
     19081     19080     19083     19082     19080     19083     19083     19086     19087
     19083     19086     19088     19083     19086     19089     19084     19083     19085
     19084     19083     19086     19085     19083     19086     19086     19089     19090
     19086     19089     19091     19086     19089     19092     19087     19086     19088
     19087     19086     19089     19088     19086     19089     19089     19092     19093
     19089     19092     19094     19089     19092     19095     19090     19089     19091
     19090     19089     19092     19091     19089     19092     19092     19095     19096
     19092     19095     19097     19092     19095     19098     19093     19092     19094
     19093     19092     19095     19094     19092     19095     19095     19098     19099
     19095     19098     19100     19095     19098     19101     19096     19095     19097
     19096     19095     19098     19097     19095     19098     19098     19101     19102
     19098     19101     19103     19098     19101     19104     19099     19098     19100
     19099     19098     19101     19100     19098     19101     19101     19104     19105
     19101     19104     19106     19101     19104     19107     19102     19101     19103
     19102     19101     19104     19103     19101     19104     19104     19107     19108
     19104     19107     19109     19104     19107     19110     19105     19104     19106
     19105     19104     19107     19106     19104     19107     19107     19110     19111
     19107     19110     19112     19107     19110     19113     19108     19107     19109
     19108     19107     19110     19109     19107     19110     19110     19113     19114
     19110     19113     19115     19110     19113     19116     19111     19110     19112
     19111     19110     19113     19112     19110     19113     19114     19113     19115
     19114     19113     19116     19115     19113     19116     19117     19119     19120
     19117     19119     19121     19117     19119     19122     19118     19117     19119
     19119     19122     19123     19119     19122     19124     19119     19122     19125
     19120     19119     19121     19120     19119     19122     19121     19119     19122
     19122     19125     19126     19122     19125     19127     19122     19125     19128
     19123     19122     19124     19123     19122     19125     19124     19122     19125
     19125     19128     19129     19125     19128     19130     19125     19128     19131
     19126     19125     19127     19126     19125     19128     19127     19125     19128
     19128     19131     19132     19128     19131     19133     19128     19131     19134
     19129     19128     19130     19129     19128     19131     19130     19128     19131
     19131     19134     19135     19131     19134     19136     19131     19134     19137
     19132     19131     19133     19132     19131     19134     19133     19131     19134
     19134     19137     19138     19134     19137     19139     19134     19137     19140
     19135     19134     19136     19135     19134     19137     19136     19134     19137
     19137     19140     19141     19137     19140     19142     19137     19140     19143
     19138     19137     19139     19138     19137     19140     19139     19137     19140
     19140     19143     19144     19140     19143     19145     19140     19143     19146
     19141     19140     19142     19141     19140     19143     19142     19140     19143
     19143     19146     19147     19143     19146     19148     19143     19146     19149
     19144     19143     19145     19144     19143     19146     19145     19143     19146
     19146     19149     19150     19146     19149     19151     19146     19149     19152
     19147     19146     19148     19147     19146     19149     19148     19146     19149
     19149     19152     19153     19149     19152     19154     19149     19152     19155
     19150     19149     19151     19150     19149     19152     19151     19149     19152
     19152     19155     19156     19152     19155     19157     19152     19155     19158
     19153     19152     19154     19153     19152     19155     19154     19152     19155
     19155     19158     19159     19155     19158     19160     19155     19158     19161
     19156     19155     19157     19156     19155     19158     19157     19155     19158
     19158     19161     19162     19158     19161     19163     19158     19161     19164
     19159     19158     19160     19159     19158     19161     19160     19158     19161
     19161     19164     19165     19161     19164     19166     19161     19164     19167
     19162     19161     19163     19162     19161     19164     19163     19161     19164
     19164     19167     19168     19164     19167     19169     19164     19167     19170
     19165     19164     19166     19165     19164     19167     19166     19164     19167
     19167     19170     19171     19167     19170     19172     19167     19170     19173
     19168     19167     19169     19168     19167     19170     19169     19167     19170
     19170     19173     19174     19170     19173     19175     19170     19173     19176
     19171     19170     19172     19171     19170     19173     19172     19170     19173
     19173     19176     19177     19173     19176     19178     19173     19176     19179
     19174     19173     19175     19174     19173     19176     19175     19173     19176
     19176     19179     19180     19176     19179     19181     19176     19179     19182
     19177     19176     19178     19177     19176     19179     19178     19176     19179
     19179     19182     19183     19179     19182     19184     19179     19182     19185
     19180     19179     19181     19180     19179     19182     19181     19179     19182
     19183     19182     19184     19183     19182     19185     19184     19182     19185
     19186     19188     19189     19186     19190     19191     19186     19190     19192
     19186     19190     19193     19186     19232     19229     19186     19232     19233
     19186     19232     19234     19187     19186     19188     19187     19186     19190
     19187     19186     19232     19188     19186     19190     19188     19186     19232
     19190     19186     19232     19190     19193     19194     19190     19193     19224
     19191     19190     19192     19191     19190     19193     19192     19190     19193
     19193     19194     19195     19193     19194     19196     19193     19224     19222
     19193     19224     19225     19193     19224     19229     19194     19193     19224
     19194     19196     19197     19194     19196     19198     19194     19196     19199
     19195     19194     19196     19196     19199     19200     19196     19199     19201
     19196     19199     19222     19197     19196     19198     19197     19196     19199
     19198     19196     19199     19199     19201     19202     19199     19201     19203
     19199     19201     19211     19199     19222     19219     19199     19222     19223
     19199     19222     19224     19200     19199     19201     19200     19199     19222
     19201     19199     19222     19201     19203     19204     19201     19203     19205
     19201     19203     19206     19201     19211     19209     19201     19211     19212
     19201     19211     19216     19202     19201     19203     19202     19201     19211
     19203     19201     19211     19203     19206     19207     19203     19206     19208
     19203     19206     19209     19204     19203     19205     19204     19203     19206
     19205     19203     19206     19206     19209     19210     19206     19209     19211
     19206     19209     19235     19207     19206     19208     19207     19206     19209
     19208     19206     19209     19209     19211     19212     19209     19211     19216
     19209     19235     19236     19209     19235     19237     19209     19235     19241
     19210     19209     19211     19210     19209     19235     19211     19209     19235
     19211     19212     19213     19211     19212     19214     19211     19212     19215
     19211     19216     19217     19211     19216     19218     19211     19216     19219
     19212     19211     19216     19213     19212     19214     19213     19212     19215
     19214     19212     19215     19216     19219     19220     19216     19219     19221
     19216     19219     19222     19217     19216     19218     19217     19216     19219
     19218     19216     19219     19219     19222     19223     19219     19222     19224
     19220     19219     19221     19220     19219     19222     19221     19219     19222
     19222     19224     19225     19222     19224     19229     19223     19222     19224
     19224     19225     19226     19224     19225     19227     19224     19225     19228
     19224     19229     19230     19224     19229     19231     19224     19229     19232
     19225     19224     19229     19226     19225     19227     19226     19225     19228
     19227     19225     19228     19229     19232     19233     19229     19232     19234
     19230     19229     19231     19230     19229     19232     19231     19229     19232
     19233     19232     19234     19235     19237     19238     19235     19237     19239
     19235     19237     19240     19235     19241     19242     19235     19241     19243
     19235     19241     19244     19236     19235     19237     19236     19235     19241
     19237     19235     19241     19238     19237     19239     19238     19237     19240
     19239     19237     19240     19241     19244     19245     19241     19244     19246
     19241     19244     19247     19242     19241     19243     19242     19241     19244
     19243     19241     19244     19244     19247     19248     19244     19247     19249
     19244     19247     19250     19245     19244     19246     19245     19244     19247
     19246     19244     19247     19247     19250     19251     19247     19250     19252
     19247     19250     19256     19248     19247     19249     19248     19247     19250
     19249     19247     19250     19250     19252     19253     19250     19252     19254
     19250     19252     19255     19250     19256     19257     19250     19256     19258
     19250     19256     19259     19251     19250     19252     19251     19250     19256
     19252     19250     19256     19253     19252     19254     19253     19252     19255
     19254     19252     19255     19257     19256     19258     19257     19256     19259
     19258     19256     19259     19260     19262     19263     19260     19264     19265
     19260     19264     19266     19260     19264     19267     19260     19306     19303
     19260     19306     19307     19260     19306     19308     19261     19260     19262
     19261     19260     19264     19261     19260     19306     19262     19260     19264
     19262     19260     19306     19264     19260     19306     19264     19267     19268
     19264     19267     19298     19265     19264     19266     19265     19264     19267
     19266     19264     19267     19267     19268     19269     19267     19268     19270
     19267     19298     19296     19267     19298     19299     19267     19298     19303
     19268     19267     19298     19268     19270     19271     19268     19270     19272
     19268     19270     19273     19269     19268     19270     19270     19273     19274
     19270     19273     19275     19270     19273     19296     19271     19270     19272
     19271     19270     19273     19272     19270     19273     19273     19275     19276
     19273     19275     19277     19273     19275     19285     19273     19296     19293
     19273     19296     19297     19273     19296     19298     19274     19273     19275
     19274     19273     19296     19275     19273     19296     19275     19277     19278
     19275     19277     19279     19275     19277     19280     19275     19285     19283
     19275     19285     19286     19275     19285     19290     19276     19275     19277
     19276     19275     19285     19277     19275     19285     19277     19280     19281
     19277     19280     19282     19277     19280     19283     19278     19277     19279
     19278     19277     19280     19279     19277     19280     19280     19283     19284
     19280     19283     19285     19280     19283     19309     19281     19280     19282
     19281     19280     19283     19282     19280     19283     19283     19285     19286
     19283     19285     19290     19283     19309     19310     19283     19309     19311
     19283     19309     19315     19284     19283     19285     19284     19283     19309
     19285     19283     19309     19285     19286     19287     19285     19286     19288
     19285     19286     19289     19285     19290     19291     19285     19290     19292
     19285     19290     19293     19286     19285     19290     19287     19286     19288
     19287     19286     19289     19288     19286     19289     19290     19293     19294
     19290     19293     19295     19290     19293     19296     19291     19290     19292
     19291     19290     19293     19292     19290     19293     19293     19296     19297
     19293     19296     19298     19294     19293     19295     19294     19293     19296
     19295     19293     19296     19296     19298     19299     19296     19298     19303
     19297     19296     19298     19298     19299     19300     19298     19299     19301
     19298     19299     19302     19298     19303     19304     19298     19303     19305
     19298     19303     19306     19299     19298     19303     19300     19299     19301
     19300     19299     19302     19301     19299     19302     19303     19306     19307
     19303     19306     19308     19304     19303     19305     19304     19303     19306
     19305     19303     19306     19307     19306     19308     19309     19311     19312
     19309     19311     19313     19309     19311     19314     19309     19315     19316
     19309     19315     19317     19309     19315     19318     19310     19309     19311
     19310     19309     19315     19311     19309     19315     19312     19311     19313
     19312     19311     19314     19313     19311     19314     19315     19318     19319
     19315     19318     19320     19315     19318     19321     19316     19315     19317
     19316     19315     19318     19317     19315     19318     19318     19321     19322
     19318     19321     19323     19318     19321     19324     19319     19318     19320
     19319     19318     19321     19320     19318     19321     19321     19324     19325
     19321     19324     19326     19321     19324     19330     19322     19321     19323
     19322     19321     19324     19323     19321     19324     19324     19326     19327
     19324     19326     19328     19324     19326     19329     19324     19330     19331
     19324     19330     19332     19324     19330     19333     19325     19324     19326
     19325     19324     19330     19326     19324     19330     19327     19326     19328
     19327     19326     19329     19328     19326     19329     19331     19330     19332
     19331     19330     19333     19332     19330     19333     19334     19338     19339
     19334     19338     19340     19334     19338     19341     19335     19334     19336
     19335     19334     19337     19335     19334     19338     19336     19334     19337
     19336     19334     19338     19337     19334     19338     19338     19341     19342
     19338     19341     19343     19338     19341     19348     19339     19338     19340
     19339     19338     19341     19340     19338     19341     19341     19348     19344
     19342     19341     19343     19342     19341     19348     19343     19341     19348
     19344     19347     19349     19345     19344     19346     19345     19344     19347
     19345     19344     19348     19346     19344     19347     19346     19344     19348
     19347     19344     19348     19347     19349     19350     19347     19349     19351
     19347     19349     19352     19349     19352     19353     19349     19352     19354
     19349     19352     19360     19350     19349     19351     19350     19349     19352
     19351     19349     19352     19352     19354     19355     19352     19360     19361
     19352     19360     19362     19352     19360     19363     19353     19352     19354
     19353     19352     19360     19354     19352     19360     19354     19355     19356
     19354     19355     19357     19355     19357     19358     19355     19357     19359
     19355     19357     19369     19356     19355     19357     19357     19369     19370
     19357     19369     19371     19357     19369     19372     19358     19357     19359
     19358     19357     19369     19359     19357     19369     19360     19363     19364
     19361     19360     19362     19361     19360     19363     19362     19360     19363
     19363     19364     19365     19363     19364     19366     19364     19366     19367
     19364     19366     19368     19364     19366     19416     19365     19364     19366
     19366     19416     19417     19366     19416     19418     19366     19416     19419
     19367     19366     19368     19367     19366     19416     19368     19366     19416
     19369     19372     19373     19369     19372     19374     19369     19372     19375
     19370     19369     19371     19370     19369     19372     19371     19369     19372
     19372     19375     19376     19372     19375     19377     19372     19375     19378
     19373     19372     19374     19373     19372     19375     19374     19372     19375
     19375     19378     19379     19375     19378     19380     19375     19378     19381
     19376     19375     19377     19376     19375     19378     19377     19375     19378
     19378     19381     19382     19378     19381     19383     19378     19381     19384
     19379     19378     19380     19379     19378     19381     19380     19378     19381
     19381     19384     19385     19381     19384     19386     19381     19384     19387
     19382     19381     19383     19382     19381     19384     19383     19381     19384
     19384     19387     19388     19384     19387     19389     19385     19384     19386
     19385     19384     19387     19386     19384     19387     19387     19389     19390
     19387     19389     19391     19388     19387     19389     19389     19391     19392
     19389     19391     19393     19389     19391     19394     19390     19389     19391
     19391     19394     19395     19391     19394     19396     19391     19394     19397
     19392     19391     19393     19392     19391     19394     19393     19391     19394
     19394     19397     19398     19394     19397     19399     19394     19397     19400
     19395     19394     19396     19395     19394     19397     19396     19394     19397
     19397     19400     19401     19397     19400     19402     19397     19400     19403
     19398     19397     19399     19398     19397     19400     19399     19397     19400
     19400     19403     19404     19400     19403     19405     19400     19403     19406
     19401     19400     19402     19401     19400     19403     19402     19400     19403
     19403     19406     19407     19403     19406     19408     19403     19406     19409
     19404     19403     19405     19404     19403     19406     19405     19403     19406
     19406     19409     19410     19406     19409     19411     19406     19409     19412
     19407     19406     19408     19407     19406     19409     19408     19406     19409
     19409     19412     19413     19409     19412     19414     19409     19412     19415
     19410     19409     19411     19410     19409     19412     19411     19409     19412
     19413     19412     19414     19413     19412     19415     19414     19412     19415
     19416     19419     19420     19416     19419     19421     19416     19419     19422
     19417     19416     19418     19417     19416     19419     19418     19416     19419
     19419     19422     19423     19419     19422     19424     19419     19422     19425
     19420     19419     19421     19420     19419     19422     19421     19419     19422
     19422     19425     19426     19422     19425     19427     19422     19425     19428
     19423     19422     19424     19423     19422     19425     19424     19422     19425
     19425     19428     19429     19425     19428     19430     19425     19428     19431
     19426     19425     19427     19426     19425     19428     19427     19425     19428
     19428     19431     19432     19428     19431     19433     19428     19431     19434
     19429     19428     19430     19429     19428     19431     19430     19428     19431
     19431     19434     19435     19431     19434     19436     19432     19431     19433
     19432     19431     19434     19433     19431     19434     19434     19436     19437
     19434     19436     19438     19435     19434     19436     19436     19438     19439
     19436     19438     19440     19436     19438     19441     19437     19436     19438
     19438     19441     19442     19438     19441     19443     19438     19441     19444
     19439     19438     19440     19439     19438     19441     19440     19438     19441
     19441     19444     19445     19441     19444     19446     19441     19444     19447
     19442     19441     19443     19442     19441     19444     19443     19441     19444
     19444     19447     19448     19444     19447     19449     19444     19447     19450
     19445     19444     19446     19445     19444     19447     19446     19444     19447
     19447     19450     19451     19447     19450     19452     19447     19450     19453
     19448     19447     19449     19448     19447     19450     19449     19447     19450
     19450     19453     19454     19450     19453     19455     19450     19453     19456
     19451     19450     19452     19451     19450     19453     19452     19450     19453
     19453     19456     19457     19453     19456     19458     19453     19456     19459
     19454     19453     19455     19454     19453     19456     19455     19453     19456
     19456     19459     19460     19456     19459     19461     19456     19459     19462
     19457     19456     19458     19457     19456     19459     19458     19456     19459
     19460     19459     19461     19460     19459     19462     19461     19459     19462
     19463     19465     19466     19463     19467     19468     19463     19467     19469
     19463     19467     19470     19463     19509     19506     19463     19509     19510
     19463     19509     19511     19464     19463     19465     19464     19463     19467
     19464     19463     19509     19465     19463     19467     19465     19463     19509
     19467     19463     19509     19467     19470     19471     19467     19470     19501
     19468     19467     19469     19468     19467     19470     19469     19467     19470
     19470     19471     19472     19470     19471     19473     19470     19501     19499
     19470     19501     19502     19470     19501     19506     19471     19470     19501
     19471     19473     19474     19471     19473     19475     19471     19473     19476
     19472     19471     19473     19473     19476     19477     19473     19476     19478
     19473     19476     19499     19474     19473     19475     19474     19473     19476
     19475     19473     19476     19476     19478     19479     19476     19478     19480
     19476     19478     19488     19476     19499     19496     19476     19499     19500
     19476     19499     19501     19477     19476     19478     19477     19476     19499
     19478     19476     19499     19478     19480     19481     19478     19480     19482
     19478     19480     19483     19478     19488     19486     19478     19488     19489
     19478     19488     19493     19479     19478     19480     19479     19478     19488
     19480     19478     19488     19480     19483     19484     19480     19483     19485
     19480     19483     19486     19481     19480     19482     19481     19480     19483
     19482     19480     19483     19483     19486     19487     19483     19486     19488
     19483     19486     19512     19484     19483     19485     19484     19483     19486
     19485     19483     19486     19486     19488     19489     19486     19488     19493
     19486     19512     19513     19486     19512     19514     19486     19512     19518
     19487     19486     19488     19487     19486     19512     19488     19486     19512
     19488     19489     19490     19488     19489     19491     19488     19489     19492
     19488     19493     19494     19488     19493     19495     19488     19493     19496
     19489     19488     19493     19490     19489     19491     19490     19489     19492
     19491     19489     19492     19493     19496     19497     19493     19496     19498
     19493     19496     19499     19494     19493     19495     19494     19493     19496
     19495     19493     19496     19496     19499     19500     19496     19499     19501
     19497     19496     19498     19497     19496     19499     19498     19496     19499
     19499     19501     19502     19499     19501     19506     19500     19499     19501
     19501     19502     19503     19501     19502     19504     19501     19502     19505
     19501     19506     19507     19501     19506     19508     19501     19506     19509
     19502     19501     19506     19503     19502     19504     19503     19502     19505
     19504     19502     19505     19506     19509     19510     19506     19509     19511
     19507     19506     19508     19507     19506     19509     19508     19506     19509
     19510     19509     19511     19512     19514     19515     19512     19514     19516
     19512     19514     19517     19512     19518     19519     19512     19518     19520
     19512     19518     19521     19513     19512     19514     19513     19512     19518
     19514     19512     19518     19515     19514     19516     19515     19514     19517
     19516     19514     19517     19518     19521     19522     19518     19521     19523
     19518     19521     19524     19519     19518     19520     19519     19518     19521
     19520     19518     19521     19521     19524     19525     19521     19524     19526
     19521     19524     19527     19522     19521     19523     19522     19521     19524
     19523     19521     19524     19524     19527     19528     19524     19527     19529
     19524     19527     19533     19525     19524     19526     19525     19524     19527
     19526     19524     19527     19527     19529     19530     19527     19529     19531
     19527     19529     19532     19527     19533     19534     19527     19533     19535
     19527     19533     19536     19528     19527     19529     19528     19527     19533
     19529     19527     19533     19530     19529     19531     19530     19529     19532
     19531     19529     19532     19534     19533     19535     19534     19533     19536
     19535     19533     19536     19537     19538     19539     19537     19538     19540
     19537     19538     19541     19537     19542     19543     19537     19542     19544
     19537     19542     19545     19537     19546     19547     19537     19546     19548
     19537     19546     19549     19537     19550     19551     19537     19550     19552
     19537     19550     19553     19538     19537     19542     19538     19537     19546
     19538     19537     19550     19539     19538     19540     19539     19538     19541
     19540     19538     19541     19542     19537     19546     19542     19537     19550
     19543     19542     19544     19543     19542     19545     19544     19542     19545
     19546     19537     19550     19547     19546     19548     19547     19546     19549
     19548     19546     19549     19550     19553     19554     19550     19553     19555
     19550     19553     19560     19551     19550     19552     19551     19550     19553
     19552     19550     19553     19553     19560     19556     19554     19553     19555
     19554     19553     19560     19555     19553     19560     19556     19559     19561
     19557     19556     19558     19557     19556     19559     19557     19556     19560
     19558     19556     19559     19558     19556     19560     19559     19556     19560
     19559     19561     19562     19559     19561     19563     19559     19561     19566
     19561     19566     19564     19561     19566     19567     19561     19566     19568
     19562     19561     19563     19562     19561     19566     19563     19561     19566
     19564     19566     19567     19564     19566     19568     19564     19616     19617
     19564     19616     19618     19565     19564     19566     19565     19564     19616
     19566     19564     19616     19566     19568     19569     19566     19568     19570
     19566     19568     19572     19567     19566     19568     19568     19570     19571
     19568     19572     19573     19568     19572     19574     19569     19568     19570
     19569     19568     19572     19570     19568     19572     19572     19574     19575
     19572     19574     19576     19573     19572     19574     19574     19576     19577
     19574     19576     19578     19574     19576     19579     19575     19574     19576
     19576     19579     19580     19576     19579     19581     19576     19579     19582
     19577     19576     19578     19577     19576     19579     19578     19576     19579
     19579     19582     19583     19579     19582     19584     19579     19582     19585
     19580     19579     19581     19580     19579     19582     19581     19579     19582
     19582     19585     19586     19582     19585     19587     19582     19585     19588
     19583     19582     19584     19583     19582     19585     19584     19582     19585
     19585     19588     19589     19585     19588     19590     19585     19588     19591
     19586     19585     19587     19586     19585     19588     19587     19585     19588
     19588     19591     19592     19588     19591     19593     19588     19591     19594
     19589     19588     19590     19589     19588     19591     19590     19588     19591
     19591     19594     19595     19591     19594     19596     19591     19594     19597
     19592     19591     19593     19592     19591     19594     19593     19591     19594
     19594     19597     19598     19594     19597     19599     19594     19597     19600
     19595     19594     19596     19595     19594     19597     19596     19594     19597
     19597     19600     19601     19597     19600     19602     19597     19600     19603
     19598     19597     19599     19598     19597     19600     19599     19597     19600
     19600     19603     19604     19600     19603     19605     19600     19603     19606
     19601     19600     19602     19601     19600     19603     19602     19600     19603
     19603     19606     19607     19603     19606     19608     19603     19606     19609
     19604     19603     19605     19604     19603     19606     19605     19603     19606
     19606     19609     19610     19606     19609     19611     19606     19609     19612
     19607     19606     19608     19607     19606     19609     19608     19606     19609
     19609     19612     19613     19609     19612     19614     19609     19612     19615
     19610     19609     19611     19610     19609     19612     19611     19609     19612
     19613     19612     19614     19613     19612     19615     19614     19612     19615
     19616     19618     19619     19616     19618     19620     19616     19618     19621
     19617     19616     19618     19618     19621     19622     19618     19621     19623
     19618     19621     19624     19619     19618     19620     19619     19618     19621
     19620     19618     19621     19621     19624     19625     19621     19624     19626
     19621     19624     19627     19622     19621     19623     19622     19621     19624
     19623     19621     19624     19624     19627     19628     19624     19627     19629
     19624     19627     19630     19625     19624     19626     19625     19624     19627
     19626     19624     19627     19627     19630     19631     19627     19630     19632
     19627     19630     19633     19628     19627     19629     19628     19627     19630
     19629     19627     19630     19630     19633     19634     19630     19633     19635
     19630     19633     19636     19631     19630     19632     19631     19630     19633
     19632     19630     19633     19633     19636     19637     19633     19636     19638
     19633     19636     19639     19634     19633     19635     19634     19633     19636
     19635     19633     19636     19636     19639     19640     19636     19639     19641
     19636     19639     19642     19637     19636     19638     19637     19636     19639
     19638     19636     19639     19639     19642     19643     19639     19642     19644
     19639     19642     19645     19640     19639     19641     19640     19639     19642
     19641     19639     19642     19642     19645     19646     19642     19645     19647
     19642     19645     19648     19643     19642     19644     19643     19642     19645
     19644     19642     19645     19645     19648     19649     19645     19648     19650
     19645     19648     19651     19646     19645     19647     19646     19645     19648
     19647     19645     19648     19648     19651     19652     19648     19651     19653
     19648     19651     19654     19649     19648     19650     19649     19648     19651
     19650     19648     19651     19651     19654     19655     19651     19654     19656
     19651     19654     19657     19652     19651     19653     19652     19651     19654
     19653     19651     19654     19654     19657     19658     19654     19657     19659
     19654     19657     19660     19655     19654     19656     19655     19654     19657
     19656     19654     19657     19657     19660     19661     19657     19660     19662
     19657     19660     19663     19658     19657     19659     19658     19657     19660
     19659     19657     19660     19660     19663     19664     19660     19663     19665
     19660     19663     19666     19661     19660     19662     19661     19660     19663
     19662     19660     19663     19663     19666     19667     19663     19666     19668
     19663     19666     19669     19664     19663     19665     19664     19663     19666
     19665     19663     19666     19666     19669     19670     19666     19669     19671
     19666     19669     19672     19667     19666     19668     19667     19666     19669
     19668     19666     19669     19669     19672     19673     19669     19672     19674
     19669     19672     19675     19670     19669     19671     19670     19669     19672
     19671     19669     19672     19672     19675     19676     19672     19675     19677
     19672     19675     19678     19673     19672     19674     19673     19672     19675
     19674     19672     19675     19675     19678     19679     19675     19678     19680
     19675     19678     19681     19676     19675     19677     19676     19675     19678
     19677     19675     19678     19678     19681     19682     19678     19681     19683
     19678     19681     19684     19679     19678     19680     19679     19678     19681
     19680     19678     19681     19682     19681     19683     19682     19681     19684
     19683     19681     19684     19685     19686     19687     19685     19686     19688
     19685     19686     19701     19685     19689     19690     19685     19689     19691
     19685     19689     19692     19685     19693     19694     19685     19693     19695
     19685     19693     19696     19685     19697     19698     19685     19697     19699
     19685     19697     19700     19686     19685     19689     19686     19685     19693
     19686     19685     19697     19686     19701     19702     19686     19701     19703
     19686     19701     19707     19687     19686     19688     19687     19686     19701
     19688     19686     19701     19689     19685     19693     19689     19685     19697
     19690     19689     19691     19690     19689     19692     19691     19689     19692
     19693     19685     19697     19694     19693     19695     19694     19693     19696
     19695     19693     19696     19698     19697     19699     19698     19697     19700
     19699     19697     19700     19701     19707     19704     19702     19701     19703
     19702     19701     19707     19703     19701     19707     19704     19708     19709
     19705     19704     19706     19705     19704     19707     19705     19704     19708
     19706     19704     19707     19706     19704     19708     19707     19704     19708
     19708     19709     19710     19708     19709     19711     19708     19709     19712
     19709     19712     19713     19709     19712     19714     19709     19712     19720
     19710     19709     19711     19710     19709     19712     19711     19709     19712
     19712     19714     19715     19712     19720     19721     19712     19720     19722
     19712     19720     19723     19713     19712     19714     19713     19712     19720
     19714     19712     19720     19714     19715     19716     19714     19715     19717
     19715     19717     19718     19715     19717     19719     19715     19717     19729
     19716     19715     19717     19717     19729     19730     19717     19729     19731
     19717     19729     19732     19718     19717     19719     19718     19717     19729
     19719     19717     19729     19720     19723     19724     19721     19720     19722
     19721     19720     19723     19722     19720     19723     19723     19724     19725
     19723     19724     19726     19724     19726     19727     19724     19726     19728
     19724     19726     19776     19725     19724     19726     19726     19776     19777
     19726     19776     19778     19726     19776     19779     19727     19726     19728
     19727     19726     19776     19728     19726     19776     19729     19732     19733
     19729     19732     19734     19729     19732     19735     19730     19729     19731
     19730     19729     19732     19731     19729     19732     19732     19735     19736
     19732     19735     19737     19732     19735     19738     19733     19732     19734
     19733     19732     19735     19734     19732     19735     19735     19738     19739
     19735     19738     19740     19735     19738     19741     19736     19735     19737
     19736     19735     19738     19737     19735     19738     19738     19741     19742
     19738     19741     19743     19738     19741     19744     19739     19738     19740
     19739     19738     19741     19740     19738     19741     19741     19744     19745
     19741     19744     19746     19741     19744     19747     19742     19741     19743
     19742     19741     19744     19743     19741     19744     19744     19747     19748
     19744     19747     19749     19745     19744     19746     19745     19744     19747
     19746     19744     19747     19747     19749     19750     19747     19749     19751
     19748     19747     19749     19749     19751     19752     19749     19751     19753
     19749     19751     19754     19750     19749     19751     19751     19754     19755
     19751     19754     19756     19751     19754     19757     19752     19751     19753
     19752     19751     19754     19753     19751     19754     19754     19757     19758
     19754     19757     19759     19754     19757     19760     19755     19754     19756
     19755     19754     19757     19756     19754     19757     19757     19760     19761
     19757     19760     19762     19757     19760     19763     19758     19757     19759
     19758     19757     19760     19759     19757     19760     19760     19763     19764
     19760     19763     19765     19760     19763     19766     19761     19760     19762
     19761     19760     19763     19762     19760     19763     19763     19766     19767
     19763     19766     19768     19763     19766     19769     19764     19763     19765
     19764     19763     19766     19765     19763     19766     19766     19769     19770
     19766     19769     19771     19766     19769     19772     19767     19766     19768
     19767     19766     19769     19768     19766     19769     19769     19772     19773
     19769     19772     19774     19769     19772     19775     19770     19769     19771
     19770     19769     19772     19771     19769     19772     19773     19772     19774
     19773     19772     19775     19774     19772     19775     19776     19779     19780
     19776     19779     19781     19776     19779     19782     19777     19776     19778
     19777     19776     19779     19778     19776     19779     19779     19782     19783
     19779     19782     19784     19779     19782     19785     19780     19779     19781
     19780     19779     19782     19781     19779     19782     19782     19785     19786
     19782     19785     19787     19782     19785     19788     19783     19782     19784
     19783     19782     19785     19784     19782     19785     19785     19788     19789
     19785     19788     19790     19785     19788     19791     19786     19785     19787
     19786     19785     19788     19787     19785     19788     19788     19791     19792
     19788     19791     19793     19788     19791     19794     19789     19788     19790
     19789     19788     19791     19790     19788     19791     19791     19794     19795
     19791     19794     19796     19792     19791     19793     19792     19791     19794
     19793     19791     19794     19794     19796     19797     19794     19796     19798
     19795     19794     19796     19796     19798     19799     19796     19798     19800
     19796     19798     19801     19797     19796     19798     19798     19801     19802
     19798     19801     19803     19798     19801     19804     19799     19798     19800
     19799     19798     19801     19800     19798     19801     19801     19804     19805
     19801     19804     19806     19801     19804     19807     19802     19801     19803
     19802     19801     19804     19803     19801     19804     19804     19807     19808
     19804     19807     19809     19804     19807     19810     19805     19804     19806
     19805     19804     19807     19806     19804     19807     19807     19810     19811
     19807     19810     19812     19807     19810     19813     19808     19807     19809
     19808     19807     19810     19809     19807     19810     19810     19813     19814
     19810     19813     19815     19810     19813     19816     19811     19810     19812
     19811     19810     19813     19812     19810     19813     19813     19816     19817
     19813     19816     19818     19813     19816     19819     19814     19813     19815
     19814     19813     19816     19815     19813     19816     19816     19819     19820
     19816     19819     19821     19816     19819     19822     19817     19816     19818
     19817     19816     19819     19818     19816     19819     19820     19819     19821
     19820     19819     19822     19821     19819     19822     19823     19824     19825
     19823     19824     19826     19823     19824     19839     19823     19827     19828
     19823     19827     19829     19823     19827     19830     19823     19831     19832
     19823     19831     19833     19823     19831     19834     19823     19835     19836
     19823     19835     19837     19823     19835     19838     19824     19823     19827
     19824     19823     19831     19824     19823     19835     19824     19839     19840
     19824     19839     19841     19824     19839     19845     19825     19824     19826
     19825     19824     19839     19826     19824     19839     19827     19823     19831
     19827     19823     19835     19828     19827     19829     19828     19827     19830
     19829     19827     19830     19831     19823     19835     19832     19831     19833
     19832     19831     19834     19833     19831     19834     19836     19835     19837
     19836     19835     19838     19837     19835     19838     19839     19845     19842
     19840     19839     19841     19840     19839     19845     19841     19839     19845
     19842     19846     19847     19843     19842     19844     19843     19842     19845
     19843     19842     19846     19844     19842     19845     19844     19842     19846
     19845     19842     19846     19846     19847     19848     19846     19847     19849
     19846     19847     19850     19847     19850     19851     19847     19850     19852
     19847     19850     19858     19848     19847     19849     19848     19847     19850
     19849     19847     19850     19850     19852     19853     19850     19858     19859
     19850     19858     19860     19850     19858     19861     19851     19850     19852
     19851     19850     19858     19852     19850     19858     19852     19853     19854
     19852     19853     19855     19853     19855     19856     19853     19855     19857
     19853     19855     19867     19854     19853     19855     19855     19867     19868
     19855     19867     19869     19855     19867     19870     19856     19855     19857
     19856     19855     19867     19857     19855     19867     19858     19861     19862
     19859     19858     19860     19859     19858     19861     19860     19858     19861
     19861     19862     19863     19861     19862     19864     19862     19864     19865
     19862     19864     19866     19862     19864     19914     19863     19862     19864
     19864     19914     19915     19864     19914     19916     19864     19914     19917
     19865     19864     19866     19865     19864     19914     19866     19864     19914
     19867     19870     19871     19867     19870     19872     19867     19870     19873
     19868     19867     19869     19868     19867     19870     19869     19867     19870
     19870     19873     19874     19870     19873     19875     19870     19873     19876
     19871     19870     19872     19871     19870     19873     19872     19870     19873
     19873     19876     19877     19873     19876     19878     19873     19876     19879
     19874     19873     19875     19874     19873     19876     19875     19873     19876
     19876     19879     19880     19876     19879     19881     19876     19879     19882
     19877     19876     19878     19877     19876     19879     19878     19876     19879
     19879     19882     19883     19879     19882     19884     19879     19882     19885
     19880     19879     19881     19880     19879     19882     19881     19879     19882
     19882     19885     19886     19882     19885     19887     19883     19882     19884
     19883     19882     19885     19884     19882     19885     19885     19887     19888
     19885     19887     19889     19886     19885     19887     19887     19889     19890
     19887     19889     19891     19887     19889     19892     19888     19887     19889
     19889     19892     19893     19889     19892     19894     19889     19892     19895
     19890     19889     19891     19890     19889     19892     19891     19889     19892
     19892     19895     19896     19892     19895     19897     19892     19895     19898
     19893     19892     19894     19893     19892     19895     19894     19892     19895
     19895     19898     19899     19895     19898     19900     19895     19898     19901
     19896     19895     19897     19896     19895     19898     19897     19895     19898
     19898     19901     19902     19898     19901     19903     19898     19901     19904
     19899     19898     19900     19899     19898     19901     19900     19898     19901
     19901     19904     19905     19901     19904     19906     19901     19904     19907
     19902     19901     19903     19902     19901     19904     19903     19901     19904
     19904     19907     19908     19904     19907     19909     19904     19907     19910
     19905     19904     19906     19905     19904     19907     19906     19904     19907
     19907     19910     19911     19907     19910     19912     19907     19910     19913
     19908     19907     19909     19908     19907     19910     19909     19907     19910
     19911     19910     19912     19911     19910     19913     19912     19910     19913
     19914     19917     19918     19914     19917     19919     19914     19917     19920
     19915     19914     19916     19915     19914     19917     19916     19914     19917
     19917     19920     19921     19917     19920     19922     19917     19920     19923
     19918     19917     19919     19918     19917     19920     19919     19917     19920
     19920     19923     19924     19920     19923     19925     19920     19923     19926
     19921     19920     19922     19921     19920     19923     19922     19920     19923
     19923     19926     19927     19923     19926     19928     19923     19926     19929
     19924     19923     19925     19924     19923     19926     19925     19923     19926
     19926     19929     19930     19926     19929     19931     19926     19929     19932
     19927     19926     19928     19927     19926     19929     19928     19926     19929
     19929     19932     19933     19929     19932     19934     19930     19929     19931
     19930     19929     19932     19931     19929     19932     19932     19934     19935
     19932     19934     19936     19933     19932     19934     19934     19936     19937
     19934     19936     19938     19934     19936     19939     19935     19934     19936
     19936     19939     19940     19936     19939     19941     19936     19939     19942
     19937     19936     19938     19937     19936     19939     19938     19936     19939
     19939     19942     19943     19939     19942     19944     19939     19942     19945
     19940     19939     19941     19940     19939     19942     19941     19939     19942
     19942     19945     19946     19942     19945     19947     19942     19945     19948
     19943     19942     19944     19943     19942     19945     19944     19942     19945
     19945     19948     19949     19945     19948     19950     19945     19948     19951
     19946     19945     19947     19946     19945     19948     19947     19945     19948
     19948     19951     19952     19948     19951     19953     19948     19951     19954
     19949     19948     19950     19949     19948     19951     19950     19948     19951
     19951     19954     19955     19951     19954     19956     19951     19954     19957
     19952     19951     19953     19952     19951     19954     19953     19951     19954
     19954     19957     19958     19954     19957     19959     19954     19957     19960
     19955     19954     19956     19955     19954     19957     19956     19954     19957
     19958     19957     19959     19958     19957     19960     19959     19957     19960
     19961     19962     19963     19961     19962     19964     19961     19962     19977
     19961     19965     19966     19961     19965     19967     19961     19965     19968
     19961     19969     19970     19961     19969     19971     19961     19969     19972
     19961     19973     19974     19961     19973     19975     19961     19973     19976
     19962     19961     19965     19962     19961     19969     19962     19961     19973
     19962     19977     19978     19962     19977     19979     19962     19977     19983
     19963     19962     19964     19963     19962     19977     19964     19962     19977
     19965     19961     19969     19965     19961     19973     19966     19965     19967
     19966     19965     19968     19967     19965     19968     19969     19961     19973
     19970     19969     19971     19970     19969     19972     19971     19969     19972
     19974     19973     19975     19974     19973     19976     19975     19973     19976
     19977     19983     19980     19978     19977     19979     19978     19977     19983
     19979     19977     19983     19980     19984     19985     19981     19980     19982
     19981     19980     19983     19981     19980     19984     19982     19980     19983
     19982     19980     19984     19983     19980     19984     19984     19985     19986
     19984     19985     19987     19984     19985     19988     19985     19988     19989
     19985     19988     19990     19985     19988     19996     19986     19985     19987
     19986     19985     19988     19987     19985     19988     19988     19990     19991
     19988     19996     19997     19988     19996     19998     19988     19996     19999
     19989     19988     19990     19989     19988     19996     19990     19988     19996
     19990     19991     19992     19990     19991     19993     19991     19993     19994
     19991     19993     19995     19991     19993     20005     19992     19991     19993
     19993     20005     20006     19993     20005     20007     19993     20005     20008
     19994     19993     19995     19994     19993     20005     19995     19993     20005
     19996     19999     20000     19997     19996     19998     19997     19996     19999
     19998     19996     19999     19999     20000     20001     19999     20000     20002
     20000     20002     20003     20000     20002     20004     20000     20002     20052
     20001     20000     20002     20002     20052     20053     20002     20052     20054
     20002     20052     20055     20003     20002     20004     20003     20002     20052
     20004     20002     20052     20005     20008     20009     20005     20008     20010
     20005     20008     20011     20006     20005     20007     20006     20005     20008
     20007     20005     20008     20008     20011     20012     20008     20011     20013
     20008     20011     20014     20009     20008     20010     20009     20008     20011
     20010     20008     20011     20011     20014     20015     20011     20014     20016
     20011     20014     20017     20012     20011     20013     20012     20011     20014
     20013     20011     20014     20014     20017     20018     20014     20017     20019
     20014     20017     20020     20015     20014     20016     20015     20014     20017
     20016     20014     20017     20017     20020     20021     20017     20020     20022
     20017     20020     20023     20018     20017     20019     20018     20017     20020
     20019     20017     20020     20020     20023     20024     20020     20023     20025
     20021     20020     20022     20021     20020     20023     20022     20020     20023
     20023     20025     20026     20023     20025     20027     20024     20023     20025
     20025     20027     20028     20025     20027     20029     20025     20027     20030
     20026     20025     20027     20027     20030     20031     20027     20030     20032
     20027     20030     20033     20028     20027     20029     20028     20027     20030
     20029     20027     20030     20030     20033     20034     20030     20033     20035
     20030     20033     20036     20031     20030     20032     20031     20030     20033
     20032     20030     20033     20033     20036     20037     20033     20036     20038
     20033     20036     20039     20034     20033     20035     20034     20033     20036
     20035     20033     20036     20036     20039     20040     20036     20039     20041
     20036     20039     20042     20037     20036     20038     20037     20036     20039
     20038     20036     20039     20039     20042     20043     20039     20042     20044
     20039     20042     20045     20040     20039     20041     20040     20039     20042
     20041     20039     20042     20042     20045     20046     20042     20045     20047
     20042     20045     20048     20043     20042     20044     20043     20042     20045
     20044     20042     20045     20045     20048     20049     20045     20048     20050
     20045     20048     20051     20046     20045     20047     20046     20045     20048
     20047     20045     20048     20049     20048     20050     20049     20048     20051
     20050     20048     20051     20052     20055     20056     20052     20055     20057
     20052     20055     20058     20053     20052     20054     20053     20052     20055
     20054     20052     20055     20055     20058     20059     20055     20058     20060
     20055     20058     20061     20056     20055     20057     20056     20055     20058
     20057     20055     20058     20058     20061     20062     20058     20061     20063
     20058     20061     20064     20059     20058     20060     20059     20058     20061
     20060     20058     20061     20061     20064     20065     20061     20064     20066
     20061     20064     20067     20062     20061     20063     20062     20061     20064
     20063     20061     20064     20064     20067     20068     20064     20067     20069
     20064     20067     20070     20065     20064     20066     20065     20064     20067
     20066     20064     20067     20067     20070     20071     20067     20070     20072
     20068     20067     20069     20068     20067     20070     20069     20067     20070
     20070     20072     20073     20070     20072     20074     20071     20070     20072
     20072     20074     20075     20072     20074     20076     20072     20074     20077
     20073     20072     20074     20074     20077     20078     20074     20077     20079
     20074     20077     20080     20075     20074     20076     20075     20074     20077
     20076     20074     20077     20077     20080     20081     20077     20080     20082
     20077     20080     20083     20078     20077     20079     20078     20077     20080
     20079     20077     20080     20080     20083     20084     20080     20083     20085
     20080     20083     20086     20081     20080     20082     20081     20080     20083
     20082     20080     20083     20083     20086     20087     20083     20086     20088
     20083     20086     20089     20084     20083     20085     20084     20083     20086
     20085     20083     20086     20086     20089     20090     20086     20089     20091
     20086     20089     20092     20087     20086     20088     20087     20086     20089
     20088     20086     20089     20089     20092     20093     20089     20092     20094
     20089     20092     20095     20090     20089     20091     20090     20089     20092
     20091     20089     20092     20092     20095     20096     20092     20095     20097
     20092     20095     20098     20093     20092     20094     20093     20092     20095
     20094     20092     20095     20096     20095     20097     20096     20095     20098
     20097     20095     20098     20099     20103     20104     20099     20103     20105
     20099     20103     20106     20100     20099     20101     20100     20099     20102
     20100     20099     20103     20101     20099     20102     20101     20099     20103
     20102     20099     20103     20103     20106     20107     20103     20106     20108
     20103     20106     20113     20104     20103     20105     20104     20103     20106
     20105     20103     20106     20106     20113     20109     20107     20106     20108
     20107     20106     20113     20108     20106     20113     20109     20112     20114
     20110     20109     20111     20110     20109     20112     20110     20109     20113
     20111     20109     20112     20111     20109     20113     20112     20109     20113
     20112     20114     20115     20112     20114     20116     20112     20114     20117
     20114     20117     20118     20114     20117     20119     20114     20117     20125
     20115     20114     20116     20115     20114     20117     20116     20114     20117
     20117     20119     20120     20117     20125     20126     20117     20125     20127
     20117     20125     20128     20118     20117     20119     20118     20117     20125
     20119     20117     20125     20119     20120     20121     20119     20120     20122
     20120     20122     20123     20120     20122     20124     20120     20122     20134
     20121     20120     20122     20122     20134     20135     20122     20134     20136
     20122     20134     20137     20123     20122     20124     20123     20122     20134
     20124     20122     20134     20125     20128     20129     20126     20125     20127
     20126     20125     20128     20127     20125     20128     20128     20129     20130
     20128     20129     20131     20129     20131     20132     20129     20131     20133
     20129     20131     20181     20130     20129     20131     20131     20181     20182
     20131     20181     20183     20131     20181     20184     20132     20131     20133
     20132     20131     20181     20133     20131     20181     20134     20137     20138
     20134     20137     20139     20134     20137     20140     20135     20134     20136
     20135     20134     20137     20136     20134     20137     20137     20140     20141
     20137     20140     20142     20137     20140     20143     20138     20137     20139
     20138     20137     20140     20139     20137     20140     20140     20143     20144
     20140     20143     20145     20140     20143     20146     20141     20140     20142
     20141     20140     20143     20142     20140     20143     20143     20146     20147
     20143     20146     20148     20143     20146     20149     20144     20143     20145
     20144     20143     20146     20145     20143     20146     20146     20149     20150
     20146     20149     20151     20146     20149     20152     20147     20146     20148
     20147     20146     20149     20148     20146     20149     20149     20152     20153
     20149     20152     20154     20150     20149     20151     20150     20149     20152
     20151     20149     20152     20152     20154     20155     20152     20154     20156
     20153     20152     20154     20154     20156     20157     20154     20156     20158
     20154     20156     20159     20155     20154     20156     20156     20159     20160
     20156     20159     20161     20156     20159     20162     20157     20156     20158
     20157     20156     20159     20158     20156     20159     20159     20162     20163
     20159     20162     20164     20159     20162     20165     20160     20159     20161
     20160     20159     20162     20161     20159     20162     20162     20165     20166
     20162     20165     20167     20162     20165     20168     20163     20162     20164
     20163     20162     20165     20164     20162     20165     20165     20168     20169
     20165     20168     20170     20165     20168     20171     20166     20165     20167
     20166     20165     20168     20167     20165     20168     20168     20171     20172
     20168     20171     20173     20168     20171     20174     20169     20168     20170
     20169     20168     20171     20170     20168     20171     20171     20174     20175
     20171     20174     20176     20171     20174     20177     20172     20171     20173
     20172     20171     20174     20173     20171     20174     20174     20177     20178
     20174     20177     20179     20174     20177     20180     20175     20174     20176
     20175     20174     20177     20176     20174     20177     20178     20177     20179
     20178     20177     20180     20179     20177     20180     20181     20184     20185
     20181     20184     20186     20181     20184     20187     20182     20181     20183
     20182     20181     20184     20183     20181     20184     20184     20187     20188
     20184     20187     20189     20184     20187     20190     20185     20184     20186
     20185     20184     20187     20186     20184     20187     20187     20190     20191
     20187     20190     20192     20187     20190     20193     20188     20187     20189
     20188     20187     20190     20189     20187     20190     20190     20193     20194
     20190     20193     20195     20190     20193     20196     20191     20190     20192
     20191     20190     20193     20192     20190     20193     20193     20196     20197
     20193     20196     20198     20193     20196     20199     20194     20193     20195
     20194     20193     20196     20195     20193     20196     20196     20199     20200
     20196     20199     20201     20197     20196     20198     20197     20196     20199
     20198     20196     20199     20199     20201     20202     20199     20201     20203
     20200     20199     20201     20201     20203     20204     20201     20203     20205
     20201     20203     20206     20202     20201     20203     20203     20206     20207
     20203     20206     20208     20203     20206     20209     20204     20203     20205
     20204     20203     20206     20205     20203     20206     20206     20209     20210
     20206     20209     20211     20206     20209     20212     20207     20206     20208
     20207     20206     20209     20208     20206     20209     20209     20212     20213
     20209     20212     20214     20209     20212     20215     20210     20209     20211
     20210     20209     20212     20211     20209     20212     20212     20215     20216
     20212     20215     20217     20212     20215     20218     20213     20212     20214
     20213     20212     20215     20214     20212     20215     20215     20218     20219
     20215     20218     20220     20215     20218     20221     20216     20215     20217
     20216     20215     20218     20217     20215     20218     20218     20221     20222
     20218     20221     20223     20218     20221     20224     20219     20218     20220
     20219     20218     20221     20220     20218     20221     20221     20224     20225
     20221     20224     20226     20221     20224     20227     20222     20221     20223
     20222     20221     20224     20223     20221     20224     20225     20224     20226
     20225     20224     20227     20226     20224     20227     20228     20232     20233
     20228     20232     20234     20228     20232     20235     20229     20228     20230
     20229     20228     20231     20229     20228     20232     20230     20228     20231
     20230     20228     20232     20231     20228     20232     20232     20235     20236
     20232     20235     20237     20232     20235     20242     20233     20232     20234
     20233     20232     20235     20234     20232     20235     20235     20242     20238
     20236     20235     20237     20236     20235     20242     20237     20235     20242
     20238     20241     20243     20239     20238     20240     20239     20238     20241
     20239     20238     20242     20240     20238     20241     20240     20238     20242
     20241     20238     20242     20241     20243     20244     20241     20243     20245
     20241     20243     20246     20243     20246     20247     20243     20246     20248
     20243     20246     20254     20244     20243     20245     20244     20243     20246
     20245     20243     20246     20246     20248     20249     20246     20254     20255
     20246     20254     20256     20246     20254     20257     20247     20246     20248
     20247     20246     20254     20248     20246     20254     20248     20249     20250
     20248     20249     20251     20249     20251     20252     20249     20251     20253
     20249     20251     20263     20250     20249     20251     20251     20263     20264
     20251     20263     20265     20251     20263     20266     20252     20251     20253
     20252     20251     20263     20253     20251     20263     20254     20257     20258
     20255     20254     20256     20255     20254     20257     20256     20254     20257
     20257     20258     20259     20257     20258     20260     20258     20260     20261
     20258     20260     20262     20258     20260     20310     20259     20258     20260
     20260     20310     20311     20260     20310     20312     20260     20310     20313
     20261     20260     20262     20261     20260     20310     20262     20260     20310
     20263     20266     20267     20263     20266     20268     20263     20266     20269
     20264     20263     20265     20264     20263     20266     20265     20263     20266
     20266     20269     20270     20266     20269     20271     20266     20269     20272
     20267     20266     20268     20267     20266     20269     20268     20266     20269
     20269     20272     20273     20269     20272     20274     20269     20272     20275
     20270     20269     20271     20270     20269     20272     20271     20269     20272
     20272     20275     20276     20272     20275     20277     20272     20275     20278
     20273     20272     20274     20273     20272     20275     20274     20272     20275
     20275     20278     20279     20275     20278     20280     20275     20278     20281
     20276     20275     20277     20276     20275     20278     20277     20275     20278
     20278     20281     20282     20278     20281     20283     20279     20278     20280
     20279     20278     20281     20280     20278     20281     20281     20283     20284
     20281     20283     20285     20282     20281     20283     20283     20285     20286
     20283     20285     20287     20283     20285     20288     20284     20283     20285
     20285     20288     20289     20285     20288     20290     20285     20288     20291
     20286     20285     20287     20286     20285     20288     20287     20285     20288
     20288     20291     20292     20288     20291     20293     20288     20291     20294
     20289     20288     20290     20289     20288     20291     20290     20288     20291
     20291     20294     20295     20291     20294     20296     20291     20294     20297
     20292     20291     20293     20292     20291     20294     20293     20291     20294
     20294     20297     20298     20294     20297     20299     20294     20297     20300
     20295     20294     20296     20295     20294     20297     20296     20294     20297
     20297     20300     20301     20297     20300     20302     20297     20300     20303
     20298     20297     20299     20298     20297     20300     20299     20297     20300
     20300     20303     20304     20300     20303     20305     20300     20303     20306
     20301     20300     20302     20301     20300     20303     20302     20300     20303
     20303     20306     20307     20303     20306     20308     20303     20306     20309
     20304     20303     20305     20304     20303     20306     20305     20303     20306
     20307     20306     20308     20307     20306     20309     20308     20306     20309
     20310     20313     20314     20310     20313     20315     20310     20313     20316
     20311     20310     20312     20311     20310     20313     20312     20310     20313
     20313     20316     20317     20313     20316     20318     20313     20316     20319
     20314     20313     20315     20314     20313     20316     20315     20313     20316
     20316     20319     20320     20316     20319     20321     20316     20319     20322
     20317     20316     20318     20317     20316     20319     20318     20316     20319
     20319     20322     20323     20319     20322     20324     20319     20322     20325
     20320     20319     20321     20320     20319     20322     20321     20319     20322
     20322     20325     20326     20322     20325     20327     20322     20325     20328
     20323     20322     20324     20323     20322     20325     20324     20322     20325
     20325     20328     20329     20325     20328     20330     20326     20325     20327
     20326     20325     20328     20327     20325     20328     20328     20330     20331
     20328     20330     20332     20329     20328     20330     20330     20332     20333
     20330     20332     20334     20330     20332     20335     20331     20330     20332
     20332     20335     20336     20332     20335     20337     20332     20335     20338
     20333     20332     20334     20333     20332     20335     20334     20332     20335
     20335     20338     20339     20335     20338     20340     20335     20338     20341
     20336     20335     20337     20336     20335     20338     20337     20335     20338
     20338     20341     20342     20338     20341     20343     20338     20341     20344
     20339     20338     20340     20339     20338     20341     20340     20338     20341
     20341     20344     20345     20341     20344     20346     20341     20344     20347
     20342     20341     20343     20342     20341     20344     20343     20341     20344
     20344     20347     20348     20344     20347     20349     20344     20347     20350
     20345     20344     20346     20345     20344     20347     20346     20344     20347
     20347     20350     20351     20347     20350     20352     20347     20350     20353
     20348     20347     20349     20348     20347     20350     20349     20347     20350
     20350     20353     20354     20350     20353     20355     20350     20353     20356
     20351     20350     20352     20351     20350     20353     20352     20350     20353
     20354     20353     20355     20354     20353     20356     20355     20353     20356
     20357     20358     20359     20357     20358     20360     20357     20358     20373
     20357     20361     20362     20357     20361     20363     20357     20361     20364
     20357     20365     20366     20357     20365     20367     20357     20365     20368
     20357     20369     20370     20357     20369     20371     20357     20369     20372
     20358     20357     20361     20358     20357     20365     20358     20357     20369
     20358     20373     20374     20358     20373     20375     20358     20373     20379
     20359     20358     20360     20359     20358     20373     20360     20358     20373
     20361     20357     20365     20361     20357     20369     20362     20361     20363
     20362     20361     20364     20363     20361     20364     20365     20357     20369
     20366     20365     20367     20366     20365     20368     20367     20365     20368
     20370     20369     20371     20370     20369     20372     20371     20369     20372
     20373     20379     20376     20374     20373     20375     20374     20373     20379
     20375     20373     20379     20376     20380     20381     20377     20376     20378
     20377     20376     20379     20377     20376     20380     20378     20376     20379
     20378     20376     20380     20379     20376     20380     20380     20381     20382
     20380     20381     20383     20380     20381     20384     20381     20384     20385
     20381     20384     20386     20381     20384     20392     20382     20381     20383
     20382     20381     20384     20383     20381     20384     20384     20386     20387
     20384     20392     20393     20384     20392     20394     20384     20392     20395
     20385     20384     20386     20385     20384     20392     20386     20384     20392
     20386     20387     20388     20386     20387     20389     20387     20389     20390
     20387     20389     20391     20387     20389     20401     20388     20387     20389
     20389     20401     20402     20389     20401     20403     20389     20401     20404
     20390     20389     20391     20390     20389     20401     20391     20389     20401
     20392     20395     20396     20393     20392     20394     20393     20392     20395
     20394     20392     20395     20395     20396     20397     20395     20396     20398
     20396     20398     20399     20396     20398     20400     20396     20398     20448
     20397     20396     20398     20398     20448     20449     20398     20448     20450
     20398     20448     20451     20399     20398     20400     20399     20398     20448
     20400     20398     20448     20401     20404     20405     20401     20404     20406
     20401     20404     20407     20402     20401     20403     20402     20401     20404
     20403     20401     20404     20404     20407     20408     20404     20407     20409
     20404     20407     20410     20405     20404     20406     20405     20404     20407
     20406     20404     20407     20407     20410     20411     20407     20410     20412
     20407     20410     20413     20408     20407     20409     20408     20407     20410
     20409     20407     20410     20410     20413     20414     20410     20413     20415
     20410     20413     20416     20411     20410     20412     20411     20410     20413
     20412     20410     20413     20413     20416     20417     20413     20416     20418
     20413     20416     20419     20414     20413     20415     20414     20413     20416
     20415     20413     20416     20416     20419     20420     20416     20419     20421
     20417     20416     20418     20417     20416     20419     20418     20416     20419
     20419     20421     20422     20419     20421     20423     20420     20419     20421
     20421     20423     20424     20421     20423     20425     20421     20423     20426
     20422     20421     20423     20423     20426     20427     20423     20426     20428
     20423     20426     20429     20424     20423     20425     20424     20423     20426
     20425     20423     20426     20426     20429     20430     20426     20429     20431
     20426     20429     20432     20427     20426     20428     20427     20426     20429
     20428     20426     20429     20429     20432     20433     20429     20432     20434
     20429     20432     20435     20430     20429     20431     20430     20429     20432
     20431     20429     20432     20432     20435     20436     20432     20435     20437
     20432     20435     20438     20433     20432     20434     20433     20432     20435
     20434     20432     20435     20435     20438     20439     20435     20438     20440
     20435     20438     20441     20436     20435     20437     20436     20435     20438
     20437     20435     20438     20438     20441     20442     20438     20441     20443
     20438     20441     20444     20439     20438     20440     20439     20438     20441
     20440     20438     20441     20441     20444     20445     20441     20444     20446
     20441     20444     20447     20442     20441     20443     20442     20441     20444
     20443     20441     20444     20445     20444     20446     20445     20444     20447
     20446     20444     20447     20448     20451     20452     20448     20451     20453
     20448     20451     20454     20449     20448     20450     20449     20448     20451
     20450     20448     20451     20451     20454     20455     20451     20454     20456
     20451     20454     20457     20452     20451     20453     20452     20451     20454
     20453     20451     20454     20454     20457     20458     20454     20457     20459
     20454     20457     20460     20455     20454     20456     20455     20454     20457
     20456     20454     20457     20457     20460     20461     20457     20460     20462
     20457     20460     20463     20458     20457     20459     20458     20457     20460
     20459     20457     20460     20460     20463     20464     20460     20463     20465
     20460     20463     20466     20461     20460     20462     20461     20460     20463
     20462     20460     20463     20463     20466     20467     20463     20466     20468
     20464     20463     20465     20464     20463     20466     20465     20463     20466
     20466     20468     20469     20466     20468     20470     20467     20466     20468
     20468     20470     20471     20468     20470     20472     20468     20470     20473
     20469     20468     20470     20470     20473     20474     20470     20473     20475
     20470     20473     20476     20471     20470     20472     20471     20470     20473
     20472     20470     20473     20473     20476     20477     20473     20476     20478
     20473     20476     20479     20474     20473     20475     20474     20473     20476
     20475     20473     20476     20476     20479     20480     20476     20479     20481
     20476     20479     20482     20477     20476     20478     20477     20476     20479
     20478     20476     20479     20479     20482     20483     20479     20482     20484
     20479     20482     20485     20480     20479     20481     20480     20479     20482
     20481     20479     20482     20482     20485     20486     20482     20485     20487
     20482     20485     20488     20483     20482     20484     20483     20482     20485
     20484     20482     20485     20485     20488     20489     20485     20488     20490
     20485     20488     20491     20486     20485     20487     20486     20485     20488
     20487     20485     20488     20488     20491     20492     20488     20491     20493
     20488     20491     20494     20489     20488     20490     20489     20488     20491
     20490     20488     20491     20492     20491     20493     20492     20491     20494
     20493     20491     20494     20495     20496     20497     20495     20496     20498
     20495     20496     20511     20495     20499     20500     20495     20499     20501
     20495     20499     20502     20495     20503     20504     20495     20503     20505
     20495     20503     20506     20495     20507     20508     20495     20507     20509
     20495     20507     20510     20496     20495     20499     20496     20495     20503
     20496     20495     20507     20496     20511     20512     20496     20511     20513
     20496     20511     20517     20497     20496     20498     20497     20496     20511
     20498     20496     20511     20499     20495     20503     20499     20495     20507
     20500     20499     20501     20500     20499     20502     20501     20499     20502
     20503     20495     20507     20504     20503     20505     20504     20503     20506
     20505     20503     20506     20508     20507     20509     20508     20507     20510
     20509     20507     20510     20511     20517     20514     20512     20511     20513
     20512     20511     20517     20513     20511     20517     20514     20518     20519
     20515     20514     20516     20515     20514     20517     20515     20514     20518
     20516     20514     20517     20516     20514     20518     20517     20514     20518
     20518     20519     20520     20518     20519     20521     20518     20519     20522
     20519     20522     20523     20519     20522     20524     20519     20522     20530
     20520     20519     20521     20520     20519     20522     20521     20519     20522
     20522     20524     20525     20522     20530     20531     20522     20530     20532
     20522     20530     20533     20523     20522     20524     20523     20522     20530
     20524     20522     20530     20524     20525     20526     20524     20525     20527
     20525     20527     20528     20525     20527     20529     20525     20527     20539
     20526     20525     20527     20527     20539     20540     20527     20539     20541
     20527     20539     20542     20528     20527     20529     20528     20527     20539
     20529     20527     20539     20530     20533     20534     20531     20530     20532
     20531     20530     20533     20532     20530     20533     20533     20534     20535
     20533     20534     20536     20534     20536     20537     20534     20536     20538
     20534     20536     20586     20535     20534     20536     20536     20586     20587
     20536     20586     20588     20536     20586     20589     20537     20536     20538
     20537     20536     20586     20538     20536     20586     20539     20542     20543
     20539     20542     20544     20539     20542     20545     20540     20539     20541
     20540     20539     20542     20541     20539     20542     20542     20545     20546
     20542     20545     20547     20542     20545     20548     20543     20542     20544
     20543     20542     20545     20544     20542     20545     20545     20548     20549
     20545     20548     20550     20545     20548     20551     20546     20545     20547
     20546     20545     20548     20547     20545     20548     20548     20551     20552
     20548     20551     20553     20548     20551     20554     20549     20548     20550
     20549     20548     20551     20550     20548     20551     20551     20554     20555
     20551     20554     20556     20551     20554     20557     20552     20551     20553
     20552     20551     20554     20553     20551     20554     20554     20557     20558
     20554     20557     20559     20555     20554     20556     20555     20554     20557
     20556     20554     20557     20557     20559     20560     20557     20559     20561
     20558     20557     20559     20559     20561     20562     20559     20561     20563
     20559     20561     20564     20560     20559     20561     20561     20564     20565
     20561     20564     20566     20561     20564     20567     20562     20561     20563
     20562     20561     20564     20563     20561     20564     20564     20567     20568
     20564     20567     20569     20564     20567     20570     20565     20564     20566
     20565     20564     20567     20566     20564     20567     20567     20570     20571
     20567     20570     20572     20567     20570     20573     20568     20567     20569
     20568     20567     20570     20569     20567     20570     20570     20573     20574
     20570     20573     20575     20570     20573     20576     20571     20570     20572
     20571     20570     20573     20572     20570     20573     20573     20576     20577
     20573     20576     20578     20573     20576     20579     20574     20573     20575
     20574     20573     20576     20575     20573     20576     20576     20579     20580
     20576     20579     20581     20576     20579     20582     20577     20576     20578
     20577     20576     20579     20578     20576     20579     20579     20582     20583
     20579     20582     20584     20579     20582     20585     20580     20579     20581
     20580     20579     20582     20581     20579     20582     20583     20582     20584
     20583     20582     20585     20584     20582     20585     20586     20589     20590
     20586     20589     20591     20586     20589     20592     20587     20586     20588
     20587     20586     20589     20588     20586     20589     20589     20592     20593
     20589     20592     20594     20589     20592     20595     20590     20589     20591
     20590     20589     20592     20591     20589     20592     20592     20595     20596
     20592     20595     20597     20592     20595     20598     20593     20592     20594
     20593     20592     20595     20594     20592     20595     20595     20598     20599
     20595     20598     20600     20595     20598     20601     20596     20595     20597
     20596     20595     20598     20597     20595     20598     20598     20601     20602
     20598     20601     20603     20598     20601     20604     20599     20598     20600
     20599     20598     20601     20600     20598     20601     20601     20604     20605
     20601     20604     20606     20602     20601     20603     20602     20601     20604
     20603     20601     20604     20604     20606     20607     20604     20606     20608
     20605     20604     20606     20606     20608     20609     20606     20608     20610
     20606     20608     20611     20607     20606     20608     20608     20611     20612
     20608     20611     20613     20608     20611     20614     20609     20608     20610
     20609     20608     20611     20610     20608     20611     20611     20614     20615
     20611     20614     20616     20611     20614     20617     20612     20611     20613
     20612     20611     20614     20613     20611     20614     20614     20617     20618
     20614     20617     20619     20614     20617     20620     20615     20614     20616
     20615     20614     20617     20616     20614     20617     20617     20620     20621
     20617     20620     20622     20617     20620     20623     20618     20617     20619
     20618     20617     20620     20619     20617     20620     20620     20623     20624
     20620     20623     20625     20620     20623     20626     20621     20620     20622
     20621     20620     20623     20622     20620     20623     20623     20626     20627
     20623     20626     20628     20623     20626     20629     20624     20623     20625
     20624     20623     20626     20625     20623     20626     20626     20629     20630
     20626     20629     20631     20626     20629     20632     20627     20626     20628
     20627     20626     20629     20628     20626     20629     20630     20629     20631
     20630     20629     20632     20631     20629     20632     20633     20637     20638
     20633     20637     20639     20633     20637     20640     20634     20633     20635
     20634     20633     20636     20634     20633     20637     20635     20633     20636
     20635     20633     20637     20636     20633     20637     20637     20640     20641
     20637     20640     20642     20637     20640     20647     20638     20637     20639
     20638     20637     20640     20639     20637     20640     20640     20647     20643
     20641     20640     20642     20641     20640     20647     20642     20640     20647
     20643     20646     20648     20644     20643     20645     20644     20643     20646
     20644     20643     20647     20645     20643     20646     20645     20643     20647
     20646     20643     20647     20646     20648     20649     20646     20648     20650
     20646     20648     20651     20648     20651     20652     20648     20651     20653
     20648     20651     20659     20649     20648     20650     20649     20648     20651
     20650     20648     20651     20651     20653     20654     20651     20659     20660
     20651     20659     20661     20651     20659     20662     20652     20651     20653
     20652     20651     20659     20653     20651     20659     20653     20654     20655
     20653     20654     20656     20654     20656     20657     20654     20656     20658
     20654     20656     20668     20655     20654     20656     20656     20668     20669
     20656     20668     20670     20656     20668     20671     20657     20656     20658
     20657     20656     20668     20658     20656     20668     20659     20662     20663
     20660     20659     20661     20660     20659     20662     20661     20659     20662
     20662     20663     20664     20662     20663     20665     20663     20665     20666
     20663     20665     20667     20663     20665     20715     20664     20663     20665
     20665     20715     20716     20665     20715     20717     20665     20715     20718
     20666     20665     20667     20666     20665     20715     20667     20665     20715
     20668     20671     20672     20668     20671     20673     20668     20671     20674
     20669     20668     20670     20669     20668     20671     20670     20668     20671
     20671     20674     20675     20671     20674     20676     20671     20674     20677
     20672     20671     20673     20672     20671     20674     20673     20671     20674
     20674     20677     20678     20674     20677     20679     20674     20677     20680
     20675     20674     20676     20675     20674     20677     20676     20674     20677
     20677     20680     20681     20677     20680     20682     20677     20680     20683
     20678     20677     20679     20678     20677     20680     20679     20677     20680
     20680     20683     20684     20680     20683     20685     20680     20683     20686
     20681     20680     20682     20681     20680     20683     20682     20680     20683
     20683     20686     20687     20683     20686     20688     20684     20683     20685
     20684     20683     20686     20685     20683     20686     20686     20688     20689
     20686     20688     20690     20687     20686     20688     20688     20690     20691
     20688     20690     20692     20688     20690     20693     20689     20688     20690
     20690     20693     20694     20690     20693     20695     20690     20693     20696
     20691     20690     20692     20691     20690     20693     20692     20690     20693
     20693     20696     20697     20693     20696     20698     20693     20696     20699
     20694     20693     20695     20694     20693     20696     20695     20693     20696
     20696     20699     20700     20696     20699     20701     20696     20699     20702
     20697     20696     20698     20697     20696     20699     20698     20696     20699
     20699     20702     20703     20699     20702     20704     20699     20702     20705
     20700     20699     20701     20700     20699     20702     20701     20699     20702
     20702     20705     20706     20702     20705     20707     20702     20705     20708
     20703     20702     20704     20703     20702     20705     20704     20702     20705
     20705     20708     20709     20705     20708     20710     20705     20708     20711
     20706     20705     20707     20706     20705     20708     20707     20705     20708
     20708     20711     20712     20708     20711     20713     20708     20711     20714
     20709     20708     20710     20709     20708     20711     20710     20708     20711
     20712     20711     20713     20712     20711     20714     20713     20711     20714
     20715     20718     20719     20715     20718     20720     20715     20718     20721
     20716     20715     20717     20716     20715     20718     20717     20715     20718
     20718     20721     20722     20718     20721     20723     20718     20721     20724
     20719     20718     20720     20719     20718     20721     20720     20718     20721
     20721     20724     20725     20721     20724     20726     20721     20724     20727
     20722     20721     20723     20722     20721     20724     20723     20721     20724
     20724     20727     20728     20724     20727     20729     20724     20727     20730
     20725     20724     20726     20725     20724     20727     20726     20724     20727
     20727     20730     20731     20727     20730     20732     20727     20730     20733
     20728     20727     20729     20728     20727     20730     20729     20727     20730
     20730     20733     20734     20730     20733     20735     20731     20730     20732
     20731     20730     20733     20732     20730     20733     20733     20735     20736
     20733     20735     20737     20734     20733     20735     20735     20737     20738
     20735     20737     20739     20735     20737     20740     20736     20735     20737
     20737     20740     20741     20737     20740     20742     20737     20740     20743
     20738     20737     20739     20738     20737     20740     20739     20737     20740
     20740     20743     20744     20740     20743     20745     20740     20743     20746
     20741     20740     20742     20741     20740     20743     20742     20740     20743
     20743     20746     20747     20743     20746     20748     20743     20746     20749
     20744     20743     20745     20744     20743     20746     20745     20743     20746
     20746     20749     20750     20746     20749     20751     20746     20749     20752
     20747     20746     20748     20747     20746     20749     20748     20746     20749
     20749     20752     20753     20749     20752     20754     20749     20752     20755
     20750     20749     20751     20750     20749     20752     20751     20749     20752
     20752     20755     20756     20752     20755     20757     20752     20755     20758
     20753     20752     20754     20753     20752     20755     20754     20752     20755
     20755     20758     20759     20755     20758     20760     20755     20758     20761
     20756     20755     20757     20756     20755     20758     20757     20755     20758
     20759     20758     20760     20759     20758     20761     20760     20758     20761
     20762     20764     20765     20762     20766     20767     20762     20766     20768
     20762     20766     20769     20762     20808     20805     20762     20808     20809
     20762     20808     20810     20763     20762     20764     20763     20762     20766
     20763     20762     20808     20764     20762     20766     20764     20762     20808
     20766     20762     20808     20766     20769     20770     20766     20769     20800
     20767     20766     20768     20767     20766     20769     20768     20766     20769
     20769     20770     20771     20769     20770     20772     20769     20800     20798
     20769     20800     20801     20769     20800     20805     20770     20769     20800
     20770     20772     20773     20770     20772     20774     20770     20772     20775
     20771     20770     20772     20772     20775     20776     20772     20775     20777
     20772     20775     20798     20773     20772     20774     20773     20772     20775
     20774     20772     20775     20775     20777     20778     20775     20777     20779
     20775     20777     20787     20775     20798     20795     20775     20798     20799
     20775     20798     20800     20776     20775     20777     20776     20775     20798
     20777     20775     20798     20777     20779     20780     20777     20779     20781
     20777     20779     20782     20777     20787     20785     20777     20787     20788
     20777     20787     20792     20778     20777     20779     20778     20777     20787
     20779     20777     20787     20779     20782     20783     20779     20782     20784
     20779     20782     20785     20780     20779     20781     20780     20779     20782
     20781     20779     20782     20782     20785     20786     20782     20785     20787
     20782     20785     20811     20783     20782     20784     20783     20782     20785
     20784     20782     20785     20785     20787     20788     20785     20787     20792
     20785     20811     20812     20785     20811     20813     20785     20811     20817
     20786     20785     20787     20786     20785     20811     20787     20785     20811
     20787     20788     20789     20787     20788     20790     20787     20788     20791
     20787     20792     20793     20787     20792     20794     20787     20792     20795
     20788     20787     20792     20789     20788     20790     20789     20788     20791
     20790     20788     20791     20792     20795     20796     20792     20795     20797
     20792     20795     20798     20793     20792     20794     20793     20792     20795
     20794     20792     20795     20795     20798     20799     20795     20798     20800
     20796     20795     20797     20796     20795     20798     20797     20795     20798
     20798     20800     20801     20798     20800     20805     20799     20798     20800
     20800     20801     20802     20800     20801     20803     20800     20801     20804
     20800     20805     20806     20800     20805     20807     20800     20805     20808
     20801     20800     20805     20802     20801     20803     20802     20801     20804
     20803     20801     20804     20805     20808     20809     20805     20808     20810
     20806     20805     20807     20806     20805     20808     20807     20805     20808
     20809     20808     20810     20811     20813     20814     20811     20813     20815
     20811     20813     20816     20811     20817     20818     20811     20817     20819
     20811     20817     20820     20812     20811     20813     20812     20811     20817
     20813     20811     20817     20814     20813     20815     20814     20813     20816
     20815     20813     20816     20817     20820     20821     20817     20820     20822
     20817     20820     20823     20818     20817     20819     20818     20817     20820
     20819     20817     20820     20820     20823     20824     20820     20823     20825
     20820     20823     20826     20821     20820     20822     20821     20820     20823
     20822     20820     20823     20823     20826     20827     20823     20826     20828
     20823     20826     20832     20824     20823     20825     20824     20823     20826
     20825     20823     20826     20826     20828     20829     20826     20828     20830
     20826     20828     20831     20826     20832     20833     20826     20832     20834
     20826     20832     20835     20827     20826     20828     20827     20826     20832
     20828     20826     20832     20829     20828     20830     20829     20828     20831
     20830     20828     20831     20833     20832     20834     20833     20832     20835
     20834     20832     20835     20836     20840     20841     20836     20840     20842
     20836     20840     20843     20837     20836     20838     20837     20836     20839
     20837     20836     20840     20838     20836     20839     20838     20836     20840
     20839     20836     20840     20840     20843     20844     20840     20843     20845
     20840     20843     20850     20841     20840     20842     20841     20840     20843
     20842     20840     20843     20843     20850     20846     20844     20843     20845
     20844     20843     20850     20845     20843     20850     20846     20849     20851
     20847     20846     20848     20847     20846     20849     20847     20846     20850
     20848     20846     20849     20848     20846     20850     20849     20846     20850
     20849     20851     20852     20849     20851     20853     20849     20851     20854
     20851     20854     20855     20851     20854     20856     20851     20854     20862
     20852     20851     20853     20852     20851     20854     20853     20851     20854
     20854     20856     20857     20854     20862     20863     20854     20862     20864
     20854     20862     20865     20855     20854     20856     20855     20854     20862
     20856     20854     20862     20856     20857     20858     20856     20857     20859
     20857     20859     20860     20857     20859     20861     20857     20859     20871
     20858     20857     20859     20859     20871     20872     20859     20871     20873
     20859     20871     20874     20860     20859     20861     20860     20859     20871
     20861     20859     20871     20862     20865     20866     20863     20862     20864
     20863     20862     20865     20864     20862     20865     20865     20866     20867
     20865     20866     20868     20866     20868     20869     20866     20868     20870
     20866     20868     20918     20867     20866     20868     20868     20918     20919
     20868     20918     20920     20868     20918     20921     20869     20868     20870
     20869     20868     20918     20870     20868     20918     20871     20874     20875
     20871     20874     20876     20871     20874     20877     20872     20871     20873
     20872     20871     20874     20873     20871     20874     20874     20877     20878
     20874     20877     20879     20874     20877     20880     20875     20874     20876
     20875     20874     20877     20876     20874     20877     20877     20880     20881
     20877     20880     20882     20877     20880     20883     20878     20877     20879
     20878     20877     20880     20879     20877     20880     20880     20883     20884
     20880     20883     20885     20880     20883     20886     20881     20880     20882
     20881     20880     20883     20882     20880     20883     20883     20886     20887
     20883     20886     20888     20883     20886     20889     20884     20883     20885
     20884     20883     20886     20885     20883     20886     20886     20889     20890
     20886     20889     20891     20887     20886     20888     20887     20886     20889
     20888     20886     20889     20889     20891     20892     20889     20891     20893
     20890     20889     20891     20891     20893     20894     20891     20893     20895
     20891     20893     20896     20892     20891     20893     20893     20896     20897
     20893     20896     20898     20893     20896     20899     20894     20893     20895
     20894     20893     20896     20895     20893     20896     20896     20899     20900
     20896     20899     20901     20896     20899     20902     20897     20896     20898
     20897     20896     20899     20898     20896     20899     20899     20902     20903
     20899     20902     20904     20899     20902     20905     20900     20899     20901
     20900     20899     20902     20901     20899     20902     20902     20905     20906
     20902     20905     20907     20902     20905     20908     20903     20902     20904
     20903     20902     20905     20904     20902     20905     20905     20908     20909
     20905     20908     20910     20905     20908     20911     20906     20905     20907
     20906     20905     20908     20907     20905     20908     20908     20911     20912
     20908     20911     20913     20908     20911     20914     20909     20908     20910
     20909     20908     20911     20910     20908     20911     20911     20914     20915
     20911     20914     20916     20911     20914     20917     20912     20911     20913
     20912     20911     20914     20913     20911     20914     20915     20914     20916
     20915     20914     20917     20916     20914     20917     20918     20921     20922
     20918     20921     20923     20918     20921     20924     20919     20918     20920
     20919     20918     20921     20920     20918     20921     20921     20924     20925
     20921     20924     20926     20921     20924     20927     20922     20921     20923
     20922     20921     20924     20923     20921     20924     20924     20927     20928
     20924     20927     20929     20924     20927     20930     20925     20924     20926
     20925     20924     20927     20926     20924     20927     20927     20930     20931
     20927     20930     20932     20927     20930     20933     20928     20927     20929
     20928     20927     20930     20929     20927     20930     20930     20933     20934
     20930     20933     20935     20930     20933     20936     20931     20930     20932
     20931     20930     20933     20932     20930     20933     20933     20936     20937
     20933     20936     20938     20934     20933     20935     20934     20933     20936
     20935     20933     20936     20936     20938     20939     20936     20938     20940
     20937     20936     20938     20938     20940     20941     20938     20940     20942
     20938     20940     20943     20939     20938     20940     20940     20943     20944
     20940     20943     20945     20940     20943     20946     20941     20940     20942
     20941     20940     20943     20942     20940     20943     20943     20946     20947
     20943     20946     20948     20943     20946     20949     20944     20943     20945
     20944     20943     20946     20945     20943     20946     20946     20949     20950
     20946     20949     20951     20946     20949     20952     20947     20946     20948
     20947     20946     20949     20948     20946     20949     20949     20952     20953
     20949     20952     20954     20949     20952     20955     20950     20949     20951
     20950     20949     20952     20951     20949     20952     20952     20955     20956
     20952     20955     20957     20952     20955     20958     20953     20952     20954
     20953     20952     20955     20954     20952     20955     20955     20958     20959
     20955     20958     20960     20955     20958     20961     20956     20955     20957
     20956     20955     20958     20957     20955     20958     20958     20961     20962
     20958     20961     20963     20958     20961     20964     20959     20958     20960
     20959     20958     20961     20960     20958     20961     20962     20961     20963
     20962     20961     20964     20963     20961     20964     20965     20966     20967
     20965     20966     20968     20965     20966     20981     20965     20969     20970
     20965     20969     20971     20965     20969     20972     20965     20973     20974
     20965     20973     20975     20965     20973     20976     20965     20977     20978
     20965     20977     20979     20965     20977     20980     20966     20965     20969
     20966     20965     20973     20966     20965     20977     20966     20981     20982
     20966     20981     20983     20966     20981     20987     20967     20966     20968
     20967     20966     20981     20968     20966     20981     20969     20965     20973
     20969     20965     20977     20970     20969     20971     20970     20969     20972
     20971     20969     20972     20973     20965     20977     20974     20973     20975
     20974     20973     20976     20975     20973     20976     20978     20977     20979
     20978     20977     20980     20979     20977     20980     20981     20987     20984
     20982     20981     20983     20982     20981     20987     20983     20981     20987
     20984     20988     20989     20985     20984     20986     20985     20984     20987
     20985     20984     20988     20986     20984     20987     20986     20984     20988
     20987     20984     20988     20988     20989     20990     20988     20989     20991
     20988     20989     20992     20989     20992     20993     20989     20992     20994
     20989     20992     21000     20990     20989     20991     20990     20989     20992
     20991     20989     20992     20992     20994     20995     20992     21000     21001
     20992     21000     21002     20992     21000     21003     20993     20992     20994
     20993     20992     21000     20994     20992     21000     20994     20995     20996
     20994     20995     20997     20995     20997     20998     20995     20997     20999
     20995     20997     21009     20996     20995     20997     20997     21009     21010
     20997     21009     21011     20997     21009     21012     20998     20997     20999
     20998     20997     21009     20999     20997     21009     21000     21003     21004
     21001     21000     21002     21001     21000     21003     21002     21000     21003
     21003     21004     21005     21003     21004     21006     21004     21006     21007
     21004     21006     21008     21004     21006     21056     21005     21004     21006
     21006     21056     21057     21006     21056     21058     21006     21056     21059
     21007     21006     21008     21007     21006     21056     21008     21006     21056
     21009     21012     21013     21009     21012     21014     21009     21012     21015
     21010     21009     21011     21010     21009     21012     21011     21009     21012
     21012     21015     21016     21012     21015     21017     21012     21015     21018
     21013     21012     21014     21013     21012     21015     21014     21012     21015
     21015     21018     21019     21015     21018     21020     21015     21018     21021
     21016     21015     21017     21016     21015     21018     21017     21015     21018
     21018     21021     21022     21018     21021     21023     21018     21021     21024
     21019     21018     21020     21019     21018     21021     21020     21018     21021
     21021     21024     21025     21021     21024     21026     21021     21024     21027
     21022     21021     21023     21022     21021     21024     21023     21021     21024
     21024     21027     21028     21024     21027     21029     21025     21024     21026
     21025     21024     21027     21026     21024     21027     21027     21029     21030
     21027     21029     21031     21028     21027     21029     21029     21031     21032
     21029     21031     21033     21029     21031     21034     21030     21029     21031
     21031     21034     21035     21031     21034     21036     21031     21034     21037
     21032     21031     21033     21032     21031     21034     21033     21031     21034
     21034     21037     21038     21034     21037     21039     21034     21037     21040
     21035     21034     21036     21035     21034     21037     21036     21034     21037
     21037     21040     21041     21037     21040     21042     21037     21040     21043
     21038     21037     21039     21038     21037     21040     21039     21037     21040
     21040     21043     21044     21040     21043     21045     21040     21043     21046
     21041     21040     21042     21041     21040     21043     21042     21040     21043
     21043     21046     21047     21043     21046     21048     21043     21046     21049
     21044     21043     21045     21044     21043     21046     21045     21043     21046
     21046     21049     21050     21046     21049     21051     21046     21049     21052
     21047     21046     21048     21047     21046     21049     21048     21046     21049
     21049     21052     21053     21049     21052     21054     21049     21052     21055
     21050     21049     21051     21050     21049     21052     21051     21049     21052
     21053     21052     21054     21053     21052     21055     21054     21052     21055
     21056     21059     21060     21056     21059     21061     21056     21059     21062
     21057     21056     21058     21057     21056     21059     21058     21056     21059
     21059     21062     21063     21059     21062     21064     21059     21062     21065
     21060     21059     21061     21060     21059     21062     21061     21059     21062
     21062     21065     21066     21062     21065     21067     21062     21065     21068
     21063     21062     21064     21063     21062     21065     21064     21062     21065
     21065     21068     21069     21065     21068     21070     21065     21068     21071
     21066     21065     21067     21066     21065     21068     21067     21065     21068
     21068     21071     21072     21068     21071     21073     21068     21071     21074
     21069     21068     21070     21069     21068     21071     21070     21068     21071
     21071     21074     21075     21071     21074     21076     21072     21071     21073
     21072     21071     21074     21073     21071     21074     21074     21076     21077
     21074     21076     21078     21075     21074     21076     21076     21078     21079
     21076     21078     21080     21076     21078     21081     21077     21076     21078
     21078     21081     21082     21078     21081     21083     21078     21081     21084
     21079     21078     21080     21079     21078     21081     21080     21078     21081
     21081     21084     21085     21081     21084     21086     21081     21084     21087
     21082     21081     21083     21082     21081     21084     21083     21081     21084
     21084     21087     21088     21084     21087     21089     21084     21087     21090
     21085     21084     21086     21085     21084     21087     21086     21084     21087
     21087     21090     21091     21087     21090     21092     21087     21090     21093
     21088     21087     21089     21088     21087     21090     21089     21087     21090
     21090     21093     21094     21090     21093     21095     21090     21093     21096
     21091     21090     21092     21091     21090     21093     21092     21090     21093
     21093     21096     21097     21093     21096     21098     21093     21096     21099
     21094     21093     21095     21094     21093     21096     21095     21093     21096
     21096     21099     21100     21096     21099     21101     21096     21099     21102
     21097     21096     21098     21097     21096     21099     21098     21096     21099
     21100     21099     21101     21100     21099     21102     21101     21099     21102
     21103     21104     21105     21103     21104     21106     21103     21104     21119
     21103     21107     21108     21103     21107     21109     21103     21107     21110
     21103     21111     21112     21103     21111     21113     21103     21111     21114
     21103     21115     21116     21103     21115     21117     21103     21115     21118
     21104     21103     21107     21104     21103     21111     21104     21103     21115
     21104     21119     21120     21104     21119     21121     21104     21119     21125
     21105     21104     21106     21105     21104     21119     21106     21104     21119
     21107     21103     21111     21107     21103     21115     21108     21107     21109
     21108     21107     21110     21109     21107     21110     21111     21103     21115
     21112     21111     21113     21112     21111     21114     21113     21111     21114
     21116     21115     21117     21116     21115     21118     21117     21115     21118
     21119     21125     21122     21120     21119     21121     21120     21119     21125
     21121     21119     21125     21122     21126     21127     21123     21122     21124
     21123     21122     21125     21123     21122     21126     21124     21122     21125
     21124     21122     21126     21125     21122     21126     21126     21127     21128
     21126     21127     21129     21126     21127     21130     21127     21130     21131
     21127     21130     21132     21127     21130     21138     21128     21127     21129
     21128     21127     21130     21129     21127     21130     21130     21132     21133
     21130     21138     21139     21130     21138     21140     21130     21138     21141
     21131     21130     21132     21131     21130     21138     21132     21130     21138
     21132     21133     21134     21132     21133     21135     21133     21135     21136
     21133     21135     21137     21133     21135     21147     21134     21133     21135
     21135     21147     21148     21135     21147     21149     21135     21147     21150
     21136     21135     21137     21136     21135     21147     21137     21135     21147
     21138     21141     21142     21139     21138     21140     21139     21138     21141
     21140     21138     21141     21141     21142     21143     21141     21142     21144
     21142     21144     21145     21142     21144     21146     21142     21144     21194
     21143     21142     21144     21144     21194     21195     21144     21194     21196
     21144     21194     21197     21145     21144     21146     21145     21144     21194
     21146     21144     21194     21147     21150     21151     21147     21150     21152
     21147     21150     21153     21148     21147     21149     21148     21147     21150
     21149     21147     21150     21150     21153     21154     21150     21153     21155
     21150     21153     21156     21151     21150     21152     21151     21150     21153
     21152     21150     21153     21153     21156     21157     21153     21156     21158
     21153     21156     21159     21154     21153     21155     21154     21153     21156
     21155     21153     21156     21156     21159     21160     21156     21159     21161
     21156     21159     21162     21157     21156     21158     21157     21156     21159
     21158     21156     21159     21159     21162     21163     21159     21162     21164
     21159     21162     21165     21160     21159     21161     21160     21159     21162
     21161     21159     21162     21162     21165     21166     21162     21165     21167
     21163     21162     21164     21163     21162     21165     21164     21162     21165
     21165     21167     21168     21165     21167     21169     21166     21165     21167
     21167     21169     21170     21167     21169     21171     21167     21169     21172
     21168     21167     21169     21169     21172     21173     21169     21172     21174
     21169     21172     21175     21170     21169     21171     21170     21169     21172
     21171     21169     21172     21172     21175     21176     21172     21175     21177
     21172     21175     21178     21173     21172     21174     21173     21172     21175
     21174     21172     21175     21175     21178     21179     21175     21178     21180
     21175     21178     21181     21176     21175     21177     21176     21175     21178
     21177     21175     21178     21178     21181     21182     21178     21181     21183
     21178     21181     21184     21179     21178     21180     21179     21178     21181
     21180     21178     21181     21181     21184     21185     21181     21184     21186
     21181     21184     21187     21182     21181     21183     21182     21181     21184
     21183     21181     21184     21184     21187     21188     21184     21187     21189
     21184     21187     21190     21185     21184     21186     21185     21184     21187
     21186     21184     21187     21187     21190     21191     21187     21190     21192
     21187     21190     21193     21188     21187     21189     21188     21187     21190
     21189     21187     21190     21191     21190     21192     21191     21190     21193
     21192     21190     21193     21194     21197     21198     21194     21197     21199
     21194     21197     21200     21195     21194     21196     21195     21194     21197
     21196     21194     21197     21197     21200     21201     21197     21200     21202
     21197     21200     21203     21198     21197     21199     21198     21197     21200
     21199     21197     21200     21200     21203     21204     21200     21203     21205
     21200     21203     21206     21201     21200     21202     21201     21200     21203
     21202     21200     21203     21203     21206     21207     21203     21206     21208
     21203     21206     21209     21204     21203     21205     21204     21203     21206
     21205     21203     21206     21206     21209     21210     21206     21209     21211
     21206     21209     21212     21207     21206     21208     21207     21206     21209
     21208     21206     21209     21209     21212     21213     21209     21212     21214
     21210     21209     21211     21210     21209     21212     21211     21209     21212
     21212     21214     21215     21212     21214     21216     21213     21212     21214
     21214     21216     21217     21214     21216     21218     21214     21216     21219
     21215     21214     21216     21216     21219     21220     21216     21219     21221
     21216     21219     21222     21217     21216     21218     21217     21216     21219
     21218     21216     21219     21219     21222     21223     21219     21222     21224
     21219     21222     21225     21220     21219     21221     21220     21219     21222
     21221     21219     21222     21222     21225     21226     21222     21225     21227
     21222     21225     21228     21223     21222     21224     21223     21222     21225
     21224     21222     21225     21225     21228     21229     21225     21228     21230
     21225     21228     21231     21226     21225     21227     21226     21225     21228
     21227     21225     21228     21228     21231     21232     21228     21231     21233
     21228     21231     21234     21229     21228     21230     21229     21228     21231
     21230     21228     21231     21231     21234     21235     21231     21234     21236
     21231     21234     21237     21232     21231     21233     21232     21231     21234
     21233     21231     21234     21234     21237     21238     21234     21237     21239
     21234     21237     21240     21235     21234     21236     21235     21234     21237
     21236     21234     21237     21238     21237     21239     21238     21237     21240
     21239     21237     21240     21241     21245     21246     21241     21245     21247
     21241     21245     21248     21242     21241     21243     21242     21241     21244
     21242     21241     21245     21243     21241     21244     21243     21241     21245
     21244     21241     21245     21245     21248     21249     21245     21248     21250
     21245     21248     21255     21246     21245     21247     21246     21245     21248
     21247     21245     21248     21248     21255     21251     21249     21248     21250
     21249     21248     21255     21250     21248     21255     21251     21254     21256
     21252     21251     21253     21252     21251     21254     21252     21251     21255
     21253     21251     21254     21253     21251     21255     21254     21251     21255
     21254     21256     21257     21254     21256     21258     21254     21256     21259
     21256     21259     21260     21256     21259     21261     21256     21259     21267
     21257     21256     21258     21257     21256     21259     21258     21256     21259
     21259     21261     21262     21259     21267     21268     21259     21267     21269
     21259     21267     21270     21260     21259     21261     21260     21259     21267
     21261     21259     21267     21261     21262     21263     21261     21262     21264
     21262     21264     21265     21262     21264     21266     21262     21264     21276
     21263     21262     21264     21264     21276     21277     21264     21276     21278
     21264     21276     21279     21265     21264     21266     21265     21264     21276
     21266     21264     21276     21267     21270     21271     21268     21267     21269
     21268     21267     21270     21269     21267     21270     21270     21271     21272
     21270     21271     21273     21271     21273     21274     21271     21273     21275
     21271     21273     21323     21272     21271     21273     21273     21323     21324
     21273     21323     21325     21273     21323     21326     21274     21273     21275
     21274     21273     21323     21275     21273     21323     21276     21279     21280
     21276     21279     21281     21276     21279     21282     21277     21276     21278
     21277     21276     21279     21278     21276     21279     21279     21282     21283
     21279     21282     21284     21279     21282     21285     21280     21279     21281
     21280     21279     21282     21281     21279     21282     21282     21285     21286
     21282     21285     21287     21282     21285     21288     21283     21282     21284
     21283     21282     21285     21284     21282     21285     21285     21288     21289
     21285     21288     21290     21285     21288     21291     21286     21285     21287
     21286     21285     21288     21287     21285     21288     21288     21291     21292
     21288     21291     21293     21288     21291     21294     21289     21288     21290
     21289     21288     21291     21290     21288     21291     21291     21294     21295
     21291     21294     21296     21292     21291     21293     21292     21291     21294
     21293     21291     21294     21294     21296     21297     21294     21296     21298
     21295     21294     21296     21296     21298     21299     21296     21298     21300
     21296     21298     21301     21297     21296     21298     21298     21301     21302
     21298     21301     21303     21298     21301     21304     21299     21298     21300
     21299     21298     21301     21300     21298     21301     21301     21304     21305
     21301     21304     21306     21301     21304     21307     21302     21301     21303
     21302     21301     21304     21303     21301     21304     21304     21307     21308
     21304     21307     21309     21304     21307     21310     21305     21304     21306
     21305     21304     21307     21306     21304     21307     21307     21310     21311
     21307     21310     21312     21307     21310     21313     21308     21307     21309
     21308     21307     21310     21309     21307     21310     21310     21313     21314
     21310     21313     21315     21310     21313     21316     21311     21310     21312
     21311     21310     21313     21312     21310     21313     21313     21316     21317
     21313     21316     21318     21313     21316     21319     21314     21313     21315
     21314     21313     21316     21315     21313     21316     21316     21319     21320
     21316     21319     21321     21316     21319     21322     21317     21316     21318
     21317     21316     21319     21318     21316     21319     21320     21319     21321
     21320     21319     21322     21321     21319     21322     21323     21326     21327
     21323     21326     21328     21323     21326     21329     21324     21323     21325
     21324     21323     21326     21325     21323     21326     21326     21329     21330
     21326     21329     21331     21326     21329     21332     21327     21326     21328
     21327     21326     21329     21328     21326     21329     21329     21332     21333
     21329     21332     21334     21329     21332     21335     21330     21329     21331
     21330     21329     21332     21331     21329     21332     21332     21335     21336
     21332     21335     21337     21332     21335     21338     21333     21332     21334
     21333     21332     21335     21334     21332     21335     21335     21338     21339
     21335     21338     21340     21335     21338     21341     21336     21335     21337
     21336     21335     21338     21337     21335     21338     21338     21341     21342
     21338     21341     21343     21339     21338     21340     21339     21338     21341
     21340     21338     21341     21341     21343     21344     21341     21343     21345
     21342     21341     21343     21343     21345     21346     21343     21345     21347
     21343     21345     21348     21344     21343     21345     21345     21348     21349
     21345     21348     21350     21345     21348     21351     21346     21345     21347
     21346     21345     21348     21347     21345     21348     21348     21351     21352
     21348     21351     21353     21348     21351     21354     21349     21348     21350
     21349     21348     21351     21350     21348     21351     21351     21354     21355
     21351     21354     21356     21351     21354     21357     21352     21351     21353
     21352     21351     21354     21353     21351     21354     21354     21357     21358
     21354     21357     21359     21354     21357     21360     21355     21354     21356
     21355     21354     21357     21356     21354     21357     21357     21360     21361
     21357     21360     21362     21357     21360     21363     21358     21357     21359
     21358     21357     21360     21359     21357     21360     21360     21363     21364
     21360     21363     21365     21360     21363     21366     21361     21360     21362
     21361     21360     21363     21362     21360     21363     21363     21366     21367
     21363     21366     21368     21363     21366     21369     21364     21363     21365
     21364     21363     21366     21365     21363     21366     21367     21366     21368
     21367     21366     21369     21368     21366     21369     21370     21371     21372
     21370     21371     21373     21370     21371     21374     21370     21375     21376
     21370     21375     21377     21370     21375     21378     21370     21379     21380
     21370     21379     21381     21370     21379     21382     21370     21383     21384
     21370     21383     21385     21370     21383     21386     21371     21370     21375
     21371     21370     21379     21371     21370     21383     21372     21371     21373
     21372     21371     21374     21373     21371     21374     21375     21370     21379
     21375     21370     21383     21376     21375     21377     21376     21375     21378
     21377     21375     21378     21379     21370     21383     21380     21379     21381
     21380     21379     21382     21381     21379     21382     21383     21386     21387
     21383     21386     21388     21383     21386     21393     21384     21383     21385
     21384     21383     21386     21385     21383     21386     21386     21393     21389
     21387     21386     21388     21387     21386     21393     21388     21386     21393
     21389     21392     21394     21390     21389     21391     21390     21389     21392
     21390     21389     21393     21391     21389     21392     21391     21389     21393
     21392     21389     21393     21392     21394     21395     21392     21394     21396
     21392     21394     21399     21394     21399     21397     21394     21399     21400
     21394     21399     21401     21395     21394     21396     21395     21394     21399
     21396     21394     21399     21397     21399     21400     21397     21399     21401
     21397     21449     21450     21397     21449     21451     21398     21397     21399
     21398     21397     21449     21399     21397     21449     21399     21401     21402
     21399     21401     21403     21399     21401     21405     21400     21399     21401
     21401     21403     21404     21401     21405     21406     21401     21405     21407
     21402     21401     21403     21402     21401     21405     21403     21401     21405
     21405     21407     21408     21405     21407     21409     21406     21405     21407
     21407     21409     21410     21407     21409     21411     21407     21409     21412
     21408     21407     21409     21409     21412     21413     21409     21412     21414
     21409     21412     21415     21410     21409     21411     21410     21409     21412
     21411     21409     21412     21412     21415     21416     21412     21415     21417
     21412     21415     21418     21413     21412     21414     21413     21412     21415
     21414     21412     21415     21415     21418     21419     21415     21418     21420
     21415     21418     21421     21416     21415     21417     21416     21415     21418
     21417     21415     21418     21418     21421     21422     21418     21421     21423
     21418     21421     21424     21419     21418     21420     21419     21418     21421
     21420     21418     21421     21421     21424     21425     21421     21424     21426
     21421     21424     21427     21422     21421     21423     21422     21421     21424
     21423     21421     21424     21424     21427     21428     21424     21427     21429
     21424     21427     21430     21425     21424     21426     21425     21424     21427
     21426     21424     21427     21427     21430     21431     21427     21430     21432
     21427     21430     21433     21428     21427     21429     21428     21427     21430
     21429     21427     21430     21430     21433     21434     21430     21433     21435
     21430     21433     21436     21431     21430     21432     21431     21430     21433
     21432     21430     21433     21433     21436     21437     21433     21436     21438
     21433     21436     21439     21434     21433     21435     21434     21433     21436
     21435     21433     21436     21436     21439     21440     21436     21439     21441
     21436     21439     21442     21437     21436     21438     21437     21436     21439
     21438     21436     21439     21439     21442     21443     21439     21442     21444
     21439     21442     21445     21440     21439     21441     21440     21439     21442
     21441     21439     21442     21442     21445     21446     21442     21445     21447
     21442     21445     21448     21443     21442     21444     21443     21442     21445
     21444     21442     21445     21446     21445     21447     21446     21445     21448
     21447     21445     21448     21449     21451     21452     21449     21451     21453
     21449     21451     21454     21450     21449     21451     21451     21454     21455
     21451     21454     21456     21451     21454     21457     21452     21451     21453
     21452     21451     21454     21453     21451     21454     21454     21457     21458
     21454     21457     21459     21454     21457     21460     21455     21454     21456
     21455     21454     21457     21456     21454     21457     21457     21460     21461
     21457     21460     21462     21457     21460     21463     21458     21457     21459
     21458     21457     21460     21459     21457     21460     21460     21463     21464
     21460     21463     21465     21460     21463     21466     21461     21460     21462
     21461     21460     21463     21462     21460     21463     21463     21466     21467
     21463     21466     21468     21463     21466     21469     21464     21463     21465
     21464     21463     21466     21465     21463     21466     21466     21469     21470
     21466     21469     21471     21466     21469     21472     21467     21466     21468
     21467     21466     21469     21468     21466     21469     21469     21472     21473
     21469     21472     21474     21469     21472     21475     21470     21469     21471
     21470     21469     21472     21471     21469     21472     21472     21475     21476
     21472     21475     21477     21472     21475     21478     21473     21472     21474
     21473     21472     21475     21474     21472     21475     21475     21478     21479
     21475     21478     21480     21475     21478     21481     21476     21475     21477
     21476     21475     21478     21477     21475     21478     21478     21481     21482
     21478     21481     21483     21478     21481     21484     21479     21478     21480
     21479     21478     21481     21480     21478     21481     21481     21484     21485
     21481     21484     21486     21481     21484     21487     21482     21481     21483
     21482     21481     21484     21483     21481     21484     21484     21487     21488
     21484     21487     21489     21484     21487     21490     21485     21484     21486
     21485     21484     21487     21486     21484     21487     21487     21490     21491
     21487     21490     21492     21487     21490     21493     21488     21487     21489
     21488     21487     21490     21489     21487     21490     21490     21493     21494
     21490     21493     21495     21490     21493     21496     21491     21490     21492
     21491     21490     21493     21492     21490     21493     21493     21496     21497
     21493     21496     21498     21493     21496     21499     21494     21493     21495
     21494     21493     21496     21495     21493     21496     21496     21499     21500
     21496     21499     21501     21496     21499     21502     21497     21496     21498
     21497     21496     21499     21498     21496     21499     21499     21502     21503
     21499     21502     21504     21499     21502     21505     21500     21499     21501
     21500     21499     21502     21501     21499     21502     21502     21505     21506
     21502     21505     21507     21502     21505     21508     21503     21502     21504
     21503     21502     21505     21504     21502     21505     21505     21508     21509
     21505     21508     21510     21505     21508     21511     21506     21505     21507
     21506     21505     21508     21507     21505     21508     21508     21511     21512
     21508     21511     21513     21508     21511     21514     21509     21508     21510
     21509     21508     21511     21510     21508     21511     21511     21514     21515
     21511     21514     21516     21511     21514     21517     21512     21511     21513
     21512     21511     21514     21513     21511     21514     21515     21514     21516
     21515     21514     21517     21516     21514     21517     21518     21520     21521
     21518     21522     21523     21518     21522     21524     21518     21522     21525
     21518     21564     21561     21518     21564     21565     21518     21564     21566
     21519     21518     21520     21519     21518     21522     21519     21518     21564
     21520     21518     21522     21520     21518     21564     21522     21518     21564
     21522     21525     21526     21522     21525     21556     21523     21522     21524
     21523     21522     21525     21524     21522     21525     21525     21526     21527
     21525     21526     21528     21525     21556     21554     21525     21556     21557
     21525     21556     21561     21526     21525     21556     21526     21528     21529
     21526     21528     21530     21526     21528     21531     21527     21526     21528
     21528     21531     21532     21528     21531     21533     21528     21531     21554
     21529     21528     21530     21529     21528     21531     21530     21528     21531
     21531     21533     21534     21531     21533     21535     21531     21533     21543
     21531     21554     21551     21531     21554     21555     21531     21554     21556
     21532     21531     21533     21532     21531     21554     21533     21531     21554
     21533     21535     21536     21533     21535     21537     21533     21535     21538
     21533     21543     21541     21533     21543     21544     21533     21543     21548
     21534     21533     21535     21534     21533     21543     21535     21533     21543
     21535     21538     21539     21535     21538     21540     21535     21538     21541
     21536     21535     21537     21536     21535     21538     21537     21535     21538
     21538     21541     21542     21538     21541     21543     21538     21541     21567
     21539     21538     21540     21539     21538     21541     21540     21538     21541
     21541     21543     21544     21541     21543     21548     21541     21567     21568
     21541     21567     21569     21541     21567     21573     21542     21541     21543
     21542     21541     21567     21543     21541     21567     21543     21544     21545
     21543     21544     21546     21543     21544     21547     21543     21548     21549
     21543     21548     21550     21543     21548     21551     21544     21543     21548
     21545     21544     21546     21545     21544     21547     21546     21544     21547
     21548     21551     21552     21548     21551     21553     21548     21551     21554
     21549     21548     21550     21549     21548     21551     21550     21548     21551
     21551     21554     21555     21551     21554     21556     21552     21551     21553
     21552     21551     21554     21553     21551     21554     21554     21556     21557
     21554     21556     21561     21555     21554     21556     21556     21557     21558
     21556     21557     21559     21556     21557     21560     21556     21561     21562
     21556     21561     21563     21556     21561     21564     21557     21556     21561
     21558     21557     21559     21558     21557     21560     21559     21557     21560
     21561     21564     21565     21561     21564     21566     21562     21561     21563
     21562     21561     21564     21563     21561     21564     21565     21564     21566
     21567     21569     21570     21567     21569     21571     21567     21569     21572
     21567     21573     21574     21567     21573     21575     21567     21573     21576
     21568     21567     21569     21568     21567     21573     21569     21567     21573
     21570     21569     21571     21570     21569     21572     21571     21569     21572
     21573     21576     21577     21573     21576     21578     21573     21576     21579
     21574     21573     21575     21574     21573     21576     21575     21573     21576
     21576     21579     21580     21576     21579     21581     21576     21579     21582
     21577     21576     21578     21577     21576     21579     21578     21576     21579
     21579     21582     21583     21579     21582     21584     21579     21582     21588
     21580     21579     21581     21580     21579     21582     21581     21579     21582
     21582     21584     21585     21582     21584     21586     21582     21584     21587
     21582     21588     21589     21582     21588     21590     21582     21588     21591
     21583     21582     21584     21583     21582     21588     21584     21582     21588
     21585     21584     21586     21585     21584     21587     21586     21584     21587
     21589     21588     21590     21589     21588     21591     21590     21588     21591
     21592     21593     21594     21592     21593     21595     21592     21593     21608
     21592     21596     21597     21592     21596     21598     21592     21596     21599
     21592     21600     21601     21592     21600     21602     21592     21600     21603
     21592     21604     21605     21592     21604     21606     21592     21604     21607
     21593     21592     21596     21593     21592     21600     21593     21592     21604
     21593     21608     21609     21593     21608     21610     21593     21608     21614
     21594     21593     21595     21594     21593     21608     21595     21593     21608
     21596     21592     21600     21596     21592     21604     21597     21596     21598
     21597     21596     21599     21598     21596     21599     21600     21592     21604
     21601     21600     21602     21601     21600     21603     21602     21600     21603
     21605     21604     21606     21605     21604     21607     21606     21604     21607
     21608     21614     21611     21609     21608     21610     21609     21608     21614
     21610     21608     21614     21611     21615     21616     21612     21611     21613
     21612     21611     21614     21612     21611     21615     21613     21611     21614
     21613     21611     21615     21614     21611     21615     21615     21616     21617
     21615     21616     21618     21615     21616     21619     21616     21619     21620
     21616     21619     21621     21616     21619     21627     21617     21616     21618
     21617     21616     21619     21618     21616     21619     21619     21621     21622
     21619     21627     21628     21619     21627     21629     21619     21627     21630
     21620     21619     21621     21620     21619     21627     21621     21619     21627
     21621     21622     21623     21621     21622     21624     21622     21624     21625
     21622     21624     21626     21622     21624     21636     21623     21622     21624
     21624     21636     21637     21624     21636     21638     21624     21636     21639
     21625     21624     21626     21625     21624     21636     21626     21624     21636
     21627     21630     21631     21628     21627     21629     21628     21627     21630
     21629     21627     21630     21630     21631     21632     21630     21631     21633
     21631     21633     21634     21631     21633     21635     21631     21633     21683
     21632     21631     21633     21633     21683     21684     21633     21683     21685
     21633     21683     21686     21634     21633     21635     21634     21633     21683
     21635     21633     21683     21636     21639     21640     21636     21639     21641
     21636     21639     21642     21637     21636     21638     21637     21636     21639
     21638     21636     21639     21639     21642     21643     21639     21642     21644
     21639     21642     21645     21640     21639     21641     21640     21639     21642
     21641     21639     21642     21642     21645     21646     21642     21645     21647
     21642     21645     21648     21643     21642     21644     21643     21642     21645
     21644     21642     21645     21645     21648     21649     21645     21648     21650
     21645     21648     21651     21646     21645     21647     21646     21645     21648
     21647     21645     21648     21648     21651     21652     21648     21651     21653
     21648     21651     21654     21649     21648     21650     21649     21648     21651
     21650     21648     21651     21651     21654     21655     21651     21654     21656
     21652     21651     21653     21652     21651     21654     21653     21651     21654
     21654     21656     21657     21654     21656     21658     21655     21654     21656
     21656     21658     21659     21656     21658     21660     21656     21658     21661
     21657     21656     21658     21658     21661     21662     21658     21661     21663
     21658     21661     21664     21659     21658     21660     21659     21658     21661
     21660     21658     21661     21661     21664     21665     21661     21664     21666
     21661     21664     21667     21662     21661     21663     21662     21661     21664
     21663     21661     21664     21664     21667     21668     21664     21667     21669
     21664     21667     21670     21665     21664     21666     21665     21664     21667
     21666     21664     21667     21667     21670     21671     21667     21670     21672
     21667     21670     21673     21668     21667     21669     21668     21667     21670
     21669     21667     21670     21670     21673     21674     21670     21673     21675
     21670     21673     21676     21671     21670     21672     21671     21670     21673
     21672     21670     21673     21673     21676     21677     21673     21676     21678
     21673     21676     21679     21674     21673     21675     21674     21673     21676
     21675     21673     21676     21676     21679     21680     21676     21679     21681
     21676     21679     21682     21677     21676     21678     21677     21676     21679
     21678     21676     21679     21680     21679     21681     21680     21679     21682
     21681     21679     21682     21683     21686     21687     21683     21686     21688
     21683     21686     21689     21684     21683     21685     21684     21683     21686
     21685     21683     21686     21686     21689     21690     21686     21689     21691
     21686     21689     21692     21687     21686     21688     21687     21686     21689
     21688     21686     21689     21689     21692     21693     21689     21692     21694
     21689     21692     21695     21690     21689     21691     21690     21689     21692
     21691     21689     21692     21692     21695     21696     21692     21695     21697
     21692     21695     21698     21693     21692     21694     21693     21692     21695
     21694     21692     21695     21695     21698     21699     21695     21698     21700
     21695     21698     21701     21696     21695     21697     21696     21695     21698
     21697     21695     21698     21698     21701     21702     21698     21701     21703
     21699     21698     21700     21699     21698     21701     21700     21698     21701
     21701     21703     21704     21701     21703     21705     21702     21701     21703
     21703     21705     21706     21703     21705     21707     21703     21705     21708
     21704     21703     21705     21705     21708     21709     21705     21708     21710
     21705     21708     21711     21706     21705     21707     21706     21705     21708
     21707     21705     21708     21708     21711     21712     21708     21711     21713
     21708     21711     21714     21709     21708     21710     21709     21708     21711
     21710     21708     21711     21711     21714     21715     21711     21714     21716
     21711     21714     21717     21712     21711     21713     21712     21711     21714
     21713     21711     21714     21714     21717     21718     21714     21717     21719
     21714     21717     21720     21715     21714     21716     21715     21714     21717
     21716     21714     21717     21717     21720     21721     21717     21720     21722
     21717     21720     21723     21718     21717     21719     21718     21717     21720
     21719     21717     21720     21720     21723     21724     21720     21723     21725
     21720     21723     21726     21721     21720     21722     21721     21720     21723
     21722     21720     21723     21723     21726     21727     21723     21726     21728
     21723     21726     21729     21724     21723     21725     21724     21723     21726
     21725     21723     21726     21727     21726     21728     21727     21726     21729
     21728     21726     21729     21730     21734     21735     21730     21734     21736
     21730     21734     21737     21731     21730     21732     21731     21730     21733
     21731     21730     21734     21732     21730     21733     21732     21730     21734
     21733     21730     21734     21734     21737     21738     21734     21737     21739
     21734     21737     21744     21735     21734     21736     21735     21734     21737
     21736     21734     21737     21737     21744     21740     21738     21737     21739
     21738     21737     21744     21739     21737     21744     21740     21743     21745
     21741     21740     21742     21741     21740     21743     21741     21740     21744
     21742     21740     21743     21742     21740     21744     21743     21740     21744
     21743     21745     21746     21743     21745     21747     21743     21745     21748
     21745     21748     21749     21745     21748     21750     21745     21748     21756
     21746     21745     21747     21746     21745     21748     21747     21745     21748
     21748     21750     21751     21748     21756     21757     21748     21756     21758
     21748     21756     21759     21749     21748     21750     21749     21748     21756
     21750     21748     21756     21750     21751     21752     21750     21751     21753
     21751     21753     21754     21751     21753     21755     21751     21753     21765
     21752     21751     21753     21753     21765     21766     21753     21765     21767
     21753     21765     21768     21754     21753     21755     21754     21753     21765
     21755     21753     21765     21756     21759     21760     21757     21756     21758
     21757     21756     21759     21758     21756     21759     21759     21760     21761
     21759     21760     21762     21760     21762     21763     21760     21762     21764
     21760     21762     21812     21761     21760     21762     21762     21812     21813
     21762     21812     21814     21762     21812     21815     21763     21762     21764
     21763     21762     21812     21764     21762     21812     21765     21768     21769
     21765     21768     21770     21765     21768     21771     21766     21765     21767
     21766     21765     21768     21767     21765     21768     21768     21771     21772
     21768     21771     21773     21768     21771     21774     21769     21768     21770
     21769     21768     21771     21770     21768     21771     21771     21774     21775
     21771     21774     21776     21771     21774     21777     21772     21771     21773
     21772     21771     21774     21773     21771     21774     21774     21777     21778
     21774     21777     21779     21774     21777     21780     21775     21774     21776
     21775     21774     21777     21776     21774     21777     21777     21780     21781
     21777     21780     21782     21777     21780     21783     21778     21777     21779
     21778     21777     21780     21779     21777     21780     21780     21783     21784
     21780     21783     21785     21781     21780     21782     21781     21780     21783
     21782     21780     21783     21783     21785     21786     21783     21785     21787
     21784     21783     21785     21785     21787     21788     21785     21787     21789
     21785     21787     21790     21786     21785     21787     21787     21790     21791
     21787     21790     21792     21787     21790     21793     21788     21787     21789
     21788     21787     21790     21789     21787     21790     21790     21793     21794
     21790     21793     21795     21790     21793     21796     21791     21790     21792
     21791     21790     21793     21792     21790     21793     21793     21796     21797
     21793     21796     21798     21793     21796     21799     21794     21793     21795
     21794     21793     21796     21795     21793     21796     21796     21799     21800
     21796     21799     21801     21796     21799     21802     21797     21796     21798
     21797     21796     21799     21798     21796     21799     21799     21802     21803
     21799     21802     21804     21799     21802     21805     21800     21799     21801
     21800     21799     21802     21801     21799     21802     21802     21805     21806
     21802     21805     21807     21802     21805     21808     21803     21802     21804
     21803     21802     21805     21804     21802     21805     21805     21808     21809
     21805     21808     21810     21805     21808     21811     21806     21805     21807
     21806     21805     21808     21807     21805     21808     21809     21808     21810
     21809     21808     21811     21810     21808     21811     21812     21815     21816
     21812     21815     21817     21812     21815     21818     21813     21812     21814
     21813     21812     21815     21814     21812     21815     21815     21818     21819
     21815     21818     21820     21815     21818     21821     21816     21815     21817
     21816     21815     21818     21817     21815     21818     21818     21821     21822
     21818     21821     21823     21818     21821     21824     21819     21818     21820
     21819     21818     21821     21820     21818     21821     21821     21824     21825
     21821     21824     21826     21821     21824     21827     21822     21821     21823
     21822     21821     21824     21823     21821     21824     21824     21827     21828
     21824     21827     21829     21824     21827     21830     21825     21824     21826
     21825     21824     21827     21826     21824     21827     21827     21830     21831
     21827     21830     21832     21828     21827     21829     21828     21827     21830
     21829     21827     21830     21830     21832     21833     21830     21832     21834
     21831     21830     21832     21832     21834     21835     21832     21834     21836
     21832     21834     21837     21833     21832     21834     21834     21837     21838
     21834     21837     21839     21834     21837     21840     21835     21834     21836
     21835     21834     21837     21836     21834     21837     21837     21840     21841
     21837     21840     21842     21837     21840     21843     21838     21837     21839
     21838     21837     21840     21839     21837     21840     21840     21843     21844
     21840     21843     21845     21840     21843     21846     21841     21840     21842
     21841     21840     21843     21842     21840     21843     21843     21846     21847
     21843     21846     21848     21843     21846     21849     21844     21843     21845
     21844     21843     21846     21845     21843     21846     21846     21849     21850
     21846     21849     21851     21846     21849     21852     21847     21846     21848
     21847     21846     21849     21848     21846     21849     21849     21852     21853
     21849     21852     21854     21849     21852     21855     21850     21849     21851
     21850     21849     21852     21851     21849     21852     21852     21855     21856
     21852     21855     21857     21852     21855     21858     21853     21852     21854
     21853     21852     21855     21854     21852     21855     21856     21855     21857
     21856     21855     21858     21857     21855     21858     21859     21860     21861
     21859     21860     21862     21859     21860     21875     21859     21863     21864
     21859     21863     21865     21859     21863     21866     21859     21867     21868
     21859     21867     21869     21859     21867     21870     21859     21871     21872
     21859     21871     21873     21859     21871     21874     21860     21859     21863
     21860     21859     21867     21860     21859     21871     21860     21875     21876
     21860     21875     21877     21860     21875     21881     21861     21860     21862
     21861     21860     21875     21862     21860     21875     21863     21859     21867
     21863     21859     21871     21864     21863     21865     21864     21863     21866
     21865     21863     21866     21867     21859     21871     21868     21867     21869
     21868     21867     21870     21869     21867     21870     21872     21871     21873
     21872     21871     21874     21873     21871     21874     21875     21881     21878
     21876     21875     21877     21876     21875     21881     21877     21875     21881
     21878     21882     21883     21879     21878     21880     21879     21878     21881
     21879     21878     21882     21880     21878     21881     21880     21878     21882
     21881     21878     21882     21882     21883     21884     21882     21883     21885
     21882     21883     21886     21883     21886     21887     21883     21886     21888
     21883     21886     21894     21884     21883     21885     21884     21883     21886
     21885     21883     21886     21886     21888     21889     21886     21894     21895
     21886     21894     21896     21886     21894     21897     21887     21886     21888
     21887     21886     21894     21888     21886     21894     21888     21889     21890
     21888     21889     21891     21889     21891     21892     21889     21891     21893
     21889     21891     21903     21890     21889     21891     21891     21903     21904
     21891     21903     21905     21891     21903     21906     21892     21891     21893
     21892     21891     21903     21893     21891     21903     21894     21897     21898
     21895     21894     21896     21895     21894     21897     21896     21894     21897
     21897     21898     21899     21897     21898     21900     21898     21900     21901
     21898     21900     21902     21898     21900     21950     21899     21898     21900
     21900     21950     21951     21900     21950     21952     21900     21950     21953
     21901     21900     21902     21901     21900     21950     21902     21900     21950
     21903     21906     21907     21903     21906     21908     21903     21906     21909
     21904     21903     21905     21904     21903     21906     21905     21903     21906
     21906     21909     21910     21906     21909     21911     21906     21909     21912
     21907     21906     21908     21907     21906     21909     21908     21906     21909
     21909     21912     21913     21909     21912     21914     21909     21912     21915
     21910     21909     21911     21910     21909     21912     21911     21909     21912
     21912     21915     21916     21912     21915     21917     21912     21915     21918
     21913     21912     21914     21913     21912     21915     21914     21912     21915
     21915     21918     21919     21915     21918     21920     21915     21918     21921
     21916     21915     21917     21916     21915     21918     21917     21915     21918
     21918     21921     21922     21918     21921     21923     21919     21918     21920
     21919     21918     21921     21920     21918     21921     21921     21923     21924
     21921     21923     21925     21922     21921     21923     21923     21925     21926
     21923     21925     21927     21923     21925     21928     21924     21923     21925
     21925     21928     21929     21925     21928     21930     21925     21928     21931
     21926     21925     21927     21926     21925     21928     21927     21925     21928
     21928     21931     21932     21928     21931     21933     21928     21931     21934
     21929     21928     21930     21929     21928     21931     21930     21928     21931
     21931     21934     21935     21931     21934     21936     21931     21934     21937
     21932     21931     21933     21932     21931     21934     21933     21931     21934
     21934     21937     21938     21934     21937     21939     21934     21937     21940
     21935     21934     21936     21935     21934     21937     21936     21934     21937
     21937     21940     21941     21937     21940     21942     21937     21940     21943
     21938     21937     21939     21938     21937     21940     21939     21937     21940
     21940     21943     21944     21940     21943     21945     21940     21943     21946
     21941     21940     21942     21941     21940     21943     21942     21940     21943
     21943     21946     21947     21943     21946     21948     21943     21946     21949
     21944     21943     21945     21944     21943     21946     21945     21943     21946
     21947     21946     21948     21947     21946     21949     21948     21946     21949
     21950     21953     21954     21950     21953     21955     21950     21953     21956
     21951     21950     21952     21951     21950     21953     21952     21950     21953
     21953     21956     21957     21953     21956     21958     21953     21956     21959
     21954     21953     21955     21954     21953     21956     21955     21953     21956
     21956     21959     21960     21956     21959     21961     21956     21959     21962
     21957     21956     21958     21957     21956     21959     21958     21956     21959
     21959     21962     21963     21959     21962     21964     21959     21962     21965
     21960     21959     21961     21960     21959     21962     21961     21959     21962
     21962     21965     21966     21962     21965     21967     21962     21965     21968
     21963     21962     21964     21963     21962     21965     21964     21962     21965
     21965     21968     21969     21965     21968     21970     21966     21965     21967
     21966     21965     21968     21967     21965     21968     21968     21970     21971
     21968     21970     21972     21969     21968     21970     21970     21972     21973
     21970     21972     21974     21970     21972     21975     21971     21970     21972
     21972     21975     21976     21972     21975     21977     21972     21975     21978
     21973     21972     21974     21973     21972     21975     21974     21972     21975
     21975     21978     21979     21975     21978     21980     21975     21978     21981
     21976     21975     21977     21976     21975     21978     21977     21975     21978
     21978     21981     21982     21978     21981     21983     21978     21981     21984
     21979     21978     21980     21979     21978     21981     21980     21978     21981
     21981     21984     21985     21981     21984     21986     21981     21984     21987
     21982     21981     21983     21982     21981     21984     21983     21981     21984
     21984     21987     21988     21984     21987     21989     21984     21987     21990
     21985     21984     21986     21985     21984     21987     21986     21984     21987
     21987     21990     21991     21987     21990     21992     21987     21990     21993
     21988     21987     21989     21988     21987     21990     21989     21987     21990
     21990     21993     21994     21990     21993     21995     21990     21993     21996
     21991     21990     21992     21991     21990     21993     21992     21990     21993
     21994     21993     21995     21994     21993     21996     21995     21993     21996
     21997     21998     21999     21997     21998     22000     21997     21998     22001
     21997     22002     22003     21997     22002     22004     21997     22002     22005
     21997     22006     22007     21997     22006     22008     21997     22006     22009
     21997     22010     22011     21997     22010     22012     21997     22010     22013
     21998     21997     22002     21998     21997     22006     21998     21997     22010
     21999     21998     22000     21999     21998     22001     22000     21998     22001
     22002     21997     22006     22002     21997     22010     22003     22002     22004
     22003     22002     22005     22004     22002     22005     22006     21997     22010
     22007     22006     22008     22007     22006     22009     22008     22006     22009
     22010     22013     22014     22010     22013     22015     22010     22013     22020
     22011     22010     22012     22011     22010     22013     22012     22010     22013
     22013     22020     22016     22014     22013     22015     22014     22013     22020
     22015     22013     22020     22016     22019     22021     22017     22016     22018
     22017     22016     22019     22017     22016     22020     22018     22016     22019
     22018     22016     22020     22019     22016     22020     22019     22021     22022
     22019     22021     22023     22019     22021     22026     22021     22026     22024
     22021     22026     22027     22021     22026     22028     22022     22021     22023
     22022     22021     22026     22023     22021     22026     22024     22026     22027
     22024     22026     22028     22024     22076     22077     22024     22076     22078
     22025     22024     22026     22025     22024     22076     22026     22024     22076
     22026     22028     22029     22026     22028     22030     22026     22028     22032
     22027     22026     22028     22028     22030     22031     22028     22032     22033
     22028     22032     22034     22029     22028     22030     22029     22028     22032
     22030     22028     22032     22032     22034     22035     22032     22034     22036
     22033     22032     22034     22034     22036     22037     22034     22036     22038
     22034     22036     22039     22035     22034     22036     22036     22039     22040
     22036     22039     22041     22036     22039     22042     22037     22036     22038
     22037     22036     22039     22038     22036     22039     22039     22042     22043
     22039     22042     22044     22039     22042     22045     22040     22039     22041
     22040     22039     22042     22041     22039     22042     22042     22045     22046
     22042     22045     22047     22042     22045     22048     22043     22042     22044
     22043     22042     22045     22044     22042     22045     22045     22048     22049
     22045     22048     22050     22045     22048     22051     22046     22045     22047
     22046     22045     22048     22047     22045     22048     22048     22051     22052
     22048     22051     22053     22048     22051     22054     22049     22048     22050
     22049     22048     22051     22050     22048     22051     22051     22054     22055
     22051     22054     22056     22051     22054     22057     22052     22051     22053
     22052     22051     22054     22053     22051     22054     22054     22057     22058
     22054     22057     22059     22054     22057     22060     22055     22054     22056
     22055     22054     22057     22056     22054     22057     22057     22060     22061
     22057     22060     22062     22057     22060     22063     22058     22057     22059
     22058     22057     22060     22059     22057     22060     22060     22063     22064
     22060     22063     22065     22060     22063     22066     22061     22060     22062
     22061     22060     22063     22062     22060     22063     22063     22066     22067
     22063     22066     22068     22063     22066     22069     22064     22063     22065
     22064     22063     22066     22065     22063     22066     22066     22069     22070
     22066     22069     22071     22066     22069     22072     22067     22066     22068
     22067     22066     22069     22068     22066     22069     22069     22072     22073
     22069     22072     22074     22069     22072     22075     22070     22069     22071
     22070     22069     22072     22071     22069     22072     22073     22072     22074
     22073     22072     22075     22074     22072     22075     22076     22078     22079
     22076     22078     22080     22076     22078     22081     22077     22076     22078
     22078     22081     22082     22078     22081     22083     22078     22081     22084
     22079     22078     22080     22079     22078     22081     22080     22078     22081
     22081     22084     22085     22081     22084     22086     22081     22084     22087
     22082     22081     22083     22082     22081     22084     22083     22081     22084
     22084     22087     22088     22084     22087     22089     22084     22087     22090
     22085     22084     22086     22085     22084     22087     22086     22084     22087
     22087     22090     22091     22087     22090     22092     22087     22090     22093
     22088     22087     22089     22088     22087     22090     22089     22087     22090
     22090     22093     22094     22090     22093     22095     22090     22093     22096
     22091     22090     22092     22091     22090     22093     22092     22090     22093
     22093     22096     22097     22093     22096     22098     22093     22096     22099
     22094     22093     22095     22094     22093     22096     22095     22093     22096
     22096     22099     22100     22096     22099     22101     22096     22099     22102
     22097     22096     22098     22097     22096     22099     22098     22096     22099
     22099     22102     22103     22099     22102     22104     22099     22102     22105
     22100     22099     22101     22100     22099     22102     22101     22099     22102
     22102     22105     22106     22102     22105     22107     22102     22105     22108
     22103     22102     22104     22103     22102     22105     22104     22102     22105
     22105     22108     22109     22105     22108     22110     22105     22108     22111
     22106     22105     22107     22106     22105     22108     22107     22105     22108
     22108     22111     22112     22108     22111     22113     22108     22111     22114
     22109     22108     22110     22109     22108     22111     22110     22108     22111
     22111     22114     22115     22111     22114     22116     22111     22114     22117
     22112     22111     22113     22112     22111     22114     22113     22111     22114
     22114     22117     22118     22114     22117     22119     22114     22117     22120
     22115     22114     22116     22115     22114     22117     22116     22114     22117
     22117     22120     22121     22117     22120     22122     22117     22120     22123
     22118     22117     22119     22118     22117     22120     22119     22117     22120
     22120     22123     22124     22120     22123     22125     22120     22123     22126
     22121     22120     22122     22121     22120     22123     22122     22120     22123
     22123     22126     22127     22123     22126     22128     22123     22126     22129
     22124     22123     22125     22124     22123     22126     22125     22123     22126
     22126     22129     22130     22126     22129     22131     22126     22129     22132
     22127     22126     22128     22127     22126     22129     22128     22126     22129
     22129     22132     22133     22129     22132     22134     22129     22132     22135
     22130     22129     22131     22130     22129     22132     22131     22129     22132
     22132     22135     22136     22132     22135     22137     22132     22135     22138
     22133     22132     22134     22133     22132     22135     22134     22132     22135
     22135     22138     22139     22135     22138     22140     22135     22138     22141
     22136     22135     22137     22136     22135     22138     22137     22135     22138
     22138     22141     22142     22138     22141     22143     22138     22141     22144
     22139     22138     22140     22139     22138     22141     22140     22138     22141
     22142     22141     22143     22142     22141     22144     22143     22141     22144
     22145     22149     22150     22145     22149     22151     22145     22149     22152
     22146     22145     22147     22146     22145     22148     22146     22145     22149
     22147     22145     22148     22147     22145     22149     22148     22145     22149
     22149     22152     22153     22149     22152     22154     22149     22152     22159
     22150     22149     22151     22150     22149     22152     22151     22149     22152
     22152     22159     22155     22153     22152     22154     22153     22152     22159
     22154     22152     22159     22155     22158     22160     22156     22155     22157
     22156     22155     22158     22156     22155     22159     22157     22155     22158
     22157     22155     22159     22158     22155     22159     22158     22160     22161
     22158     22160     22162     22158     22160     22163     22160     22163     22164
     22160     22163     22165     22160     22163     22171     22161     22160     22162
     22161     22160     22163     22162     22160     22163     22163     22165     22166
     22163     22171     22172     22163     22171     22173     22163     22171     22174
     22164     22163     22165     22164     22163     22171     22165     22163     22171
     22165     22166     22167     22165     22166     22168     22166     22168     22169
     22166     22168     22170     22166     22168     22180     22167     22166     22168
     22168     22180     22181     22168     22180     22182     22168     22180     22183
     22169     22168     22170     22169     22168     22180     22170     22168     22180
     22171     22174     22175     22172     22171     22173     22172     22171     22174
     22173     22171     22174     22174     22175     22176     22174     22175     22177
     22175     22177     22178     22175     22177     22179     22175     22177     22227
     22176     22175     22177     22177     22227     22228     22177     22227     22229
     22177     22227     22230     22178     22177     22179     22178     22177     22227
     22179     22177     22227     22180     22183     22184     22180     22183     22185
     22180     22183     22186     22181     22180     22182     22181     22180     22183
     22182     22180     22183     22183     22186     22187     22183     22186     22188
     22183     22186     22189     22184     22183     22185     22184     22183     22186
     22185     22183     22186     22186     22189     22190     22186     22189     22191
     22186     22189     22192     22187     22186     22188     22187     22186     22189
     22188     22186     22189     22189     22192     22193     22189     22192     22194
     22189     22192     22195     22190     22189     22191     22190     22189     22192
     22191     22189     22192     22192     22195     22196     22192     22195     22197
     22192     22195     22198     22193     22192     22194     22193     22192     22195
     22194     22192     22195     22195     22198     22199     22195     22198     22200
     22196     22195     22197     22196     22195     22198     22197     22195     22198
     22198     22200     22201     22198     22200     22202     22199     22198     22200
     22200     22202     22203     22200     22202     22204     22200     22202     22205
     22201     22200     22202     22202     22205     22206     22202     22205     22207
     22202     22205     22208     22203     22202     22204     22203     22202     22205
     22204     22202     22205     22205     22208     22209     22205     22208     22210
     22205     22208     22211     22206     22205     22207     22206     22205     22208
     22207     22205     22208     22208     22211     22212     22208     22211     22213
     22208     22211     22214     22209     22208     22210     22209     22208     22211
     22210     22208     22211     22211     22214     22215     22211     22214     22216
     22211     22214     22217     22212     22211     22213     22212     22211     22214
     22213     22211     22214     22214     22217     22218     22214     22217     22219
     22214     22217     22220     22215     22214     22216     22215     22214     22217
     22216     22214     22217     22217     22220     22221     22217     22220     22222
     22217     22220     22223     22218     22217     22219     22218     22217     22220
     22219     22217     22220     22220     22223     22224     22220     22223     22225
     22220     22223     22226     22221     22220     22222     22221     22220     22223
     22222     22220     22223     22224     22223     22225     22224     22223     22226
     22225     22223     22226     22227     22230     22231     22227     22230     22232
     22227     22230     22233     22228     22227     22229     22228     22227     22230
     22229     22227     22230     22230     22233     22234     22230     22233     22235
     22230     22233     22236     22231     22230     22232     22231     22230     22233
     22232     22230     22233     22233     22236     22237     22233     22236     22238
     22233     22236     22239     22234     22233     22235     22234     22233     22236
     22235     22233     22236     22236     22239     22240     22236     22239     22241
     22236     22239     22242     22237     22236     22238     22237     22236     22239
     22238     22236     22239     22239     22242     22243     22239     22242     22244
     22239     22242     22245     22240     22239     22241     22240     22239     22242
     22241     22239     22242     22242     22245     22246     22242     22245     22247
     22243     22242     22244     22243     22242     22245     22244     22242     22245
     22245     22247     22248     22245     22247     22249     22246     22245     22247
     22247     22249     22250     22247     22249     22251     22247     22249     22252
     22248     22247     22249     22249     22252     22253     22249     22252     22254
     22249     22252     22255     22250     22249     22251     22250     22249     22252
     22251     22249     22252     22252     22255     22256     22252     22255     22257
     22252     22255     22258     22253     22252     22254     22253     22252     22255
     22254     22252     22255     22255     22258     22259     22255     22258     22260
     22255     22258     22261     22256     22255     22257     22256     22255     22258
     22257     22255     22258     22258     22261     22262     22258     22261     22263
     22258     22261     22264     22259     22258     22260     22259     22258     22261
     22260     22258     22261     22261     22264     22265     22261     22264     22266
     22261     22264     22267     22262     22261     22263     22262     22261     22264
     22263     22261     22264     22264     22267     22268     22264     22267     22269
     22264     22267     22270     22265     22264     22266     22265     22264     22267
     22266     22264     22267     22267     22270     22271     22267     22270     22272
     22267     22270     22273     22268     22267     22269     22268     22267     22270
     22269     22267     22270     22271     22270     22272     22271     22270     22273
     22272     22270     22273     22274     22278     22279     22274     22278     22280
     22274     22278     22281     22275     22274     22276     22275     22274     22277
     22275     22274     22278     22276     22274     22277     22276     22274     22278
     22277     22274     22278     22278     22281     22282     22278     22281     22283
     22278     22281     22288     22279     22278     22280     22279     22278     22281
     22280     22278     22281     22281     22288     22284     22282     22281     22283
     22282     22281     22288     22283     22281     22288     22284     22287     22289
     22285     22284     22286     22285     22284     22287     22285     22284     22288
     22286     22284     22287     22286     22284     22288     22287     22284     22288
     22287     22289     22290     22287     22289     22291     22287     22289     22292
     22289     22292     22293     22289     22292     22294     22289     22292     22300
     22290     22289     22291     22290     22289     22292     22291     22289     22292
     22292     22294     22295     22292     22300     22301     22292     22300     22302
     22292     22300     22303     22293     22292     22294     22293     22292     22300
     22294     22292     22300     22294     22295     22296     22294     22295     22297
     22295     22297     22298     22295     22297     22299     22295     22297     22309
     22296     22295     22297     22297     22309     22310     22297     22309     22311
     22297     22309     22312     22298     22297     22299     22298     22297     22309
     22299     22297     22309     22300     22303     22304     22301     22300     22302
     22301     22300     22303     22302     22300     22303     22303     22304     22305
     22303     22304     22306     22304     22306     22307     22304     22306     22308
     22304     22306     22356     22305     22304     22306     22306     22356     22357
     22306     22356     22358     22306     22356     22359     22307     22306     22308
     22307     22306     22356     22308     22306     22356     22309     22312     22313
     22309     22312     22314     22309     22312     22315     22310     22309     22311
     22310     22309     22312     22311     22309     22312     22312     22315     22316
     22312     22315     22317     22312     22315     22318     22313     22312     22314
     22313     22312     22315     22314     22312     22315     22315     22318     22319
     22315     22318     22320     22315     22318     22321     22316     22315     22317
     22316     22315     22318     22317     22315     22318     22318     22321     22322
     22318     22321     22323     22318     22321     22324     22319     22318     22320
     22319     22318     22321     22320     22318     22321     22321     22324     22325
     22321     22324     22326     22321     22324     22327     22322     22321     22323
     22322     22321     22324     22323     22321     22324     22324     22327     22328
     22324     22327     22329     22325     22324     22326     22325     22324     22327
     22326     22324     22327     22327     22329     22330     22327     22329     22331
     22328     22327     22329     22329     22331     22332     22329     22331     22333
     22329     22331     22334     22330     22329     22331     22331     22334     22335
     22331     22334     22336     22331     22334     22337     22332     22331     22333
     22332     22331     22334     22333     22331     22334     22334     22337     22338
     22334     22337     22339     22334     22337     22340     22335     22334     22336
     22335     22334     22337     22336     22334     22337     22337     22340     22341
     22337     22340     22342     22337     22340     22343     22338     22337     22339
     22338     22337     22340     22339     22337     22340     22340     22343     22344
     22340     22343     22345     22340     22343     22346     22341     22340     22342
     22341     22340     22343     22342     22340     22343     22343     22346     22347
     22343     22346     22348     22343     22346     22349     22344     22343     22345
     22344     22343     22346     22345     22343     22346     22346     22349     22350
     22346     22349     22351     22346     22349     22352     22347     22346     22348
     22347     22346     22349     22348     22346     22349     22349     22352     22353
     22349     22352     22354     22349     22352     22355     22350     22349     22351
     22350     22349     22352     22351     22349     22352     22353     22352     22354
     22353     22352     22355     22354     22352     22355     22356     22359     22360
     22356     22359     22361     22356     22359     22362     22357     22356     22358
     22357     22356     22359     22358     22356     22359     22359     22362     22363
     22359     22362     22364     22359     22362     22365     22360     22359     22361
     22360     22359     22362     22361     22359     22362     22362     22365     22366
     22362     22365     22367     22362     22365     22368     22363     22362     22364
     22363     22362     22365     22364     22362     22365     22365     22368     22369
     22365     22368     22370     22365     22368     22371     22366     22365     22367
     22366     22365     22368     22367     22365     22368     22368     22371     22372
     22368     22371     22373     22368     22371     22374     22369     22368     22370
     22369     22368     22371     22370     22368     22371     22371     22374     22375
     22371     22374     22376     22372     22371     22373     22372     22371     22374
     22373     22371     22374     22374     22376     22377     22374     22376     22378
     22375     22374     22376     22376     22378     22379     22376     22378     22380
     22376     22378     22381     22377     22376     22378     22378     22381     22382
     22378     22381     22383     22378     22381     22384     22379     22378     22380
     22379     22378     22381     22380     22378     22381     22381     22384     22385
     22381     22384     22386     22381     22384     22387     22382     22381     22383
     22382     22381     22384     22383     22381     22384     22384     22387     22388
     22384     22387     22389     22384     22387     22390     22385     22384     22386
     22385     22384     22387     22386     22384     22387     22387     22390     22391
     22387     22390     22392     22387     22390     22393     22388     22387     22389
     22388     22387     22390     22389     22387     22390     22390     22393     22394
     22390     22393     22395     22390     22393     22396     22391     22390     22392
     22391     22390     22393     22392     22390     22393     22393     22396     22397
     22393     22396     22398     22393     22396     22399     22394     22393     22395
     22394     22393     22396     22395     22393     22396     22396     22399     22400
     22396     22399     22401     22396     22399     22402     22397     22396     22398
     22397     22396     22399     22398     22396     22399     22400     22399     22401
     22400     22399     22402     22401     22399     22402     22403     22404     22405
     22403     22404     22406     22403     22404     22419     22403     22407     22408
     22403     22407     22409     22403     22407     22410     22403     22411     22412
     22403     22411     22413     22403     22411     22414     22403     22415     22416
     22403     22415     22417     22403     22415     22418     22404     22403     22407
     22404     22403     22411     22404     22403     22415     22404     22419     22420
     22404     22419     22421     22404     22419     22425     22405     22404     22406
     22405     22404     22419     22406     22404     22419     22407     22403     22411
     22407     22403     22415     22408     22407     22409     22408     22407     22410
     22409     22407     22410     22411     22403     22415     22412     22411     22413
     22412     22411     22414     22413     22411     22414     22416     22415     22417
     22416     22415     22418     22417     22415     22418     22419     22425     22422
     22420     22419     22421     22420     22419     22425     22421     22419     22425
     22422     22426     22427     22423     22422     22424     22423     22422     22425
     22423     22422     22426     22424     22422     22425     22424     22422     22426
     22425     22422     22426     22426     22427     22428     22426     22427     22429
     22426     22427     22430     22427     22430     22431     22427     22430     22432
     22427     22430     22438     22428     22427     22429     22428     22427     22430
     22429     22427     22430     22430     22432     22433     22430     22438     22439
     22430     22438     22440     22430     22438     22441     22431     22430     22432
     22431     22430     22438     22432     22430     22438     22432     22433     22434
     22432     22433     22435     22433     22435     22436     22433     22435     22437
     22433     22435     22447     22434     22433     22435     22435     22447     22448
     22435     22447     22449     22435     22447     22450     22436     22435     22437
     22436     22435     22447     22437     22435     22447     22438     22441     22442
     22439     22438     22440     22439     22438     22441     22440     22438     22441
     22441     22442     22443     22441     22442     22444     22442     22444     22445
     22442     22444     22446     22442     22444     22494     22443     22442     22444
     22444     22494     22495     22444     22494     22496     22444     22494     22497
     22445     22444     22446     22445     22444     22494     22446     22444     22494
     22447     22450     22451     22447     22450     22452     22447     22450     22453
     22448     22447     22449     22448     22447     22450     22449     22447     22450
     22450     22453     22454     22450     22453     22455     22450     22453     22456
     22451     22450     22452     22451     22450     22453     22452     22450     22453
     22453     22456     22457     22453     22456     22458     22453     22456     22459
     22454     22453     22455     22454     22453     22456     22455     22453     22456
     22456     22459     22460     22456     22459     22461     22456     22459     22462
     22457     22456     22458     22457     22456     22459     22458     22456     22459
     22459     22462     22463     22459     22462     22464     22459     22462     22465
     22460     22459     22461     22460     22459     22462     22461     22459     22462
     22462     22465     22466     22462     22465     22467     22463     22462     22464
     22463     22462     22465     22464     22462     22465     22465     22467     22468
     22465     22467     22469     22466     22465     22467     22467     22469     22470
     22467     22469     22471     22467     22469     22472     22468     22467     22469
     22469     22472     22473     22469     22472     22474     22469     22472     22475
     22470     22469     22471     22470     22469     22472     22471     22469     22472
     22472     22475     22476     22472     22475     22477     22472     22475     22478
     22473     22472     22474     22473     22472     22475     22474     22472     22475
     22475     22478     22479     22475     22478     22480     22475     22478     22481
     22476     22475     22477     22476     22475     22478     22477     22475     22478
     22478     22481     22482     22478     22481     22483     22478     22481     22484
     22479     22478     22480     22479     22478     22481     22480     22478     22481
     22481     22484     22485     22481     22484     22486     22481     22484     22487
     22482     22481     22483     22482     22481     22484     22483     22481     22484
     22484     22487     22488     22484     22487     22489     22484     22487     22490
     22485     22484     22486     22485     22484     22487     22486     22484     22487
     22487     22490     22491     22487     22490     22492     22487     22490     22493
     22488     22487     22489     22488     22487     22490     22489     22487     22490
     22491     22490     22492     22491     22490     22493     22492     22490     22493
     22494     22497     22498     22494     22497     22499     22494     22497     22500
     22495     22494     22496     22495     22494     22497     22496     22494     22497
     22497     22500     22501     22497     22500     22502     22497     22500     22503
     22498     22497     22499     22498     22497     22500     22499     22497     22500
     22500     22503     22504     22500     22503     22505     22500     22503     22506
     22501     22500     22502     22501     22500     22503     22502     22500     22503
     22503     22506     22507     22503     22506     22508     22503     22506     22509
     22504     22503     22505     22504     22503     22506     22505     22503     22506
     22506     22509     22510     22506     22509     22511     22506     22509     22512
     22507     22506     22508     22507     22506     22509     22508     22506     22509
     22509     22512     22513     22509     22512     22514     22510     22509     22511
     22510     22509     22512     22511     22509     22512     22512     22514     22515
     22512     22514     22516     22513     22512     22514     22514     22516     22517
     22514     22516     22518     22514     22516     22519     22515     22514     22516
     22516     22519     22520     22516     22519     22521     22516     22519     22522
     22517     22516     22518     22517     22516     22519     22518     22516     22519
     22519     22522     22523     22519     22522     22524     22519     22522     22525
     22520     22519     22521     22520     22519     22522     22521     22519     22522
     22522     22525     22526     22522     22525     22527     22522     22525     22528
     22523     22522     22524     22523     22522     22525     22524     22522     22525
     22525     22528     22529     22525     22528     22530     22525     22528     22531
     22526     22525     22527     22526     22525     22528     22527     22525     22528
     22528     22531     22532     22528     22531     22533     22528     22531     22534
     22529     22528     22530     22529     22528     22531     22530     22528     22531
     22531     22534     22535     22531     22534     22536     22531     22534     22537
     22532     22531     22533     22532     22531     22534     22533     22531     22534
     22534     22537     22538     22534     22537     22539     22534     22537     22540
     22535     22534     22536     22535     22534     22537     22536     22534     22537
     22538     22537     22539     22538     22537     22540     22539     22537     22540
     22541     22542     22543     22541     22542     22544     22541     22542     22557
     22541     22545     22546     22541     22545     22547     22541     22545     22548
     22541     22549     22550     22541     22549     22551     22541     22549     22552
     22541     22553     22554     22541     22553     22555     22541     22553     22556
     22542     22541     22545     22542     22541     22549     22542     22541     22553
     22542     22557     22558     22542     22557     22559     22542     22557     22563
     22543     22542     22544     22543     22542     22557     22544     22542     22557
     22545     22541     22549     22545     22541     22553     22546     22545     22547
     22546     22545     22548     22547     22545     22548     22549     22541     22553
     22550     22549     22551     22550     22549     22552     22551     22549     22552
     22554     22553     22555     22554     22553     22556     22555     22553     22556
     22557     22563     22560     22558     22557     22559     22558     22557     22563
     22559     22557     22563     22560     22564     22565     22561     22560     22562
     22561     22560     22563     22561     22560     22564     22562     22560     22563
     22562     22560     22564     22563     22560     22564     22564     22565     22566
     22564     22565     22567     22564     22565     22568     22565     22568     22569
     22565     22568     22570     22565     22568     22576     22566     22565     22567
     22566     22565     22568     22567     22565     22568     22568     22570     22571
     22568     22576     22577     22568     22576     22578     22568     22576     22579
     22569     22568     22570     22569     22568     22576     22570     22568     22576
     22570     22571     22572     22570     22571     22573     22571     22573     22574
     22571     22573     22575     22571     22573     22585     22572     22571     22573
     22573     22585     22586     22573     22585     22587     22573     22585     22588
     22574     22573     22575     22574     22573     22585     22575     22573     22585
     22576     22579     22580     22577     22576     22578     22577     22576     22579
     22578     22576     22579     22579     22580     22581     22579     22580     22582
     22580     22582     22583     22580     22582     22584     22580     22582     22632
     22581     22580     22582     22582     22632     22633     22582     22632     22634
     22582     22632     22635     22583     22582     22584     22583     22582     22632
     22584     22582     22632     22585     22588     22589     22585     22588     22590
     22585     22588     22591     22586     22585     22587     22586     22585     22588
     22587     22585     22588     22588     22591     22592     22588     22591     22593
     22588     22591     22594     22589     22588     22590     22589     22588     22591
     22590     22588     22591     22591     22594     22595     22591     22594     22596
     22591     22594     22597     22592     22591     22593     22592     22591     22594
     22593     22591     22594     22594     22597     22598     22594     22597     22599
     22594     22597     22600     22595     22594     22596     22595     22594     22597
     22596     22594     22597     22597     22600     22601     22597     22600     22602
     22597     22600     22603     22598     22597     22599     22598     22597     22600
     22599     22597     22600     22600     22603     22604     22600     22603     22605
     22601     22600     22602     22601     22600     22603     22602     22600     22603
     22603     22605     22606     22603     22605     22607     22604     22603     22605
     22605     22607     22608     22605     22607     22609     22605     22607     22610
     22606     22605     22607     22607     22610     22611     22607     22610     22612
     22607     22610     22613     22608     22607     22609     22608     22607     22610
     22609     22607     22610     22610     22613     22614     22610     22613     22615
     22610     22613     22616     22611     22610     22612     22611     22610     22613
     22612     22610     22613     22613     22616     22617     22613     22616     22618
     22613     22616     22619     22614     22613     22615     22614     22613     22616
     22615     22613     22616     22616     22619     22620     22616     22619     22621
     22616     22619     22622     22617     22616     22618     22617     22616     22619
     22618     22616     22619     22619     22622     22623     22619     22622     22624
     22619     22622     22625     22620     22619     22621     22620     22619     22622
     22621     22619     22622     22622     22625     22626     22622     22625     22627
     22622     22625     22628     22623     22622     22624     22623     22622     22625
     22624     22622     22625     22625     22628     22629     22625     22628     22630
     22625     22628     22631     22626     22625     22627     22626     22625     22628
     22627     22625     22628     22629     22628     22630     22629     22628     22631
     22630     22628     22631     22632     22635     22636     22632     22635     22637
     22632     22635     22638     22633     22632     22634     22633     22632     22635
     22634     22632     22635     22635     22638     22639     22635     22638     22640
     22635     22638     22641     22636     22635     22637     22636     22635     22638
     22637     22635     22638     22638     22641     22642     22638     22641     22643
     22638     22641     22644     22639     22638     22640     22639     22638     22641
     22640     22638     22641     22641     22644     22645     22641     22644     22646
     22641     22644     22647     22642     22641     22643     22642     22641     22644
     22643     22641     22644     22644     22647     22648     22644     22647     22649
     22644     22647     22650     22645     22644     22646     22645     22644     22647
     22646     22644     22647     22647     22650     22651     22647     22650     22652
     22648     22647     22649     22648     22647     22650     22649     22647     22650
     22650     22652     22653     22650     22652     22654     22651     22650     22652
     22652     22654     22655     22652     22654     22656     22652     22654     22657
     22653     22652     22654     22654     22657     22658     22654     22657     22659
     22654     22657     22660     22655     22654     22656     22655     22654     22657
     22656     22654     22657     22657     22660     22661     22657     22660     22662
     22657     22660     22663     22658     22657     22659     22658     22657     22660
     22659     22657     22660     22660     22663     22664     22660     22663     22665
     22660     22663     22666     22661     22660     22662     22661     22660     22663
     22662     22660     22663     22663     22666     22667     22663     22666     22668
     22663     22666     22669     22664     22663     22665     22664     22663     22666
     22665     22663     22666     22666     22669     22670     22666     22669     22671
     22666     22669     22672     22667     22666     22668     22667     22666     22669
     22668     22666     22669     22669     22672     22673     22669     22672     22674
     22669     22672     22675     22670     22669     22671     22670     22669     22672
     22671     22669     22672     22672     22675     22676     22672     22675     22677
     22672     22675     22678     22673     22672     22674     22673     22672     22675
     22674     22672     22675     22676     22675     22677     22676     22675     22678
     22677     22675     22678     22679     22681     22682     22679     22683     22684
     22679     22683     22685     22679     22683     22686     22679     22725     22722
     22679     22725     22726     22679     22725     22727     22680     22679     22681
     22680     22679     22683     22680     22679     22725     22681     22679     22683
     22681     22679     22725     22683     22679     22725     22683     22686     22687
     22683     22686     22717     22684     22683     22685     22684     22683     22686
     22685     22683     22686     22686     22687     22688     22686     22687     22689
     22686     22717     22715     22686     22717     22718     22686     22717     22722
     22687     22686     22717     22687     22689     22690     22687     22689     22691
     22687     22689     22692     22688     22687     22689     22689     22692     22693
     22689     22692     22694     22689     22692     22715     22690     22689     22691
     22690     22689     22692     22691     22689     22692     22692     22694     22695
     22692     22694     22696     22692     22694     22704     22692     22715     22712
     22692     22715     22716     22692     22715     22717     22693     22692     22694
     22693     22692     22715     22694     22692     22715     22694     22696     22697
     22694     22696     22698     22694     22696     22699     22694     22704     22702
     22694     22704     22705     22694     22704     22709     22695     22694     22696
     22695     22694     22704     22696     22694     22704     22696     22699     22700
     22696     22699     22701     22696     22699     22702     22697     22696     22698
     22697     22696     22699     22698     22696     22699     22699     22702     22703
     22699     22702     22704     22699     22702     22728     22700     22699     22701
     22700     22699     22702     22701     22699     22702     22702     22704     22705
     22702     22704     22709     22702     22728     22729     22702     22728     22730
     22702     22728     22734     22703     22702     22704     22703     22702     22728
     22704     22702     22728     22704     22705     22706     22704     22705     22707
     22704     22705     22708     22704     22709     22710     22704     22709     22711
     22704     22709     22712     22705     22704     22709     22706     22705     22707
     22706     22705     22708     22707     22705     22708     22709     22712     22713
     22709     22712     22714     22709     22712     22715     22710     22709     22711
     22710     22709     22712     22711     22709     22712     22712     22715     22716
     22712     22715     22717     22713     22712     22714     22713     22712     22715
     22714     22712     22715     22715     22717     22718     22715     22717     22722
     22716     22715     22717     22717     22718     22719     22717     22718     22720
     22717     22718     22721     22717     22722     22723     22717     22722     22724
     22717     22722     22725     22718     22717     22722     22719     22718     22720
     22719     22718     22721     22720     22718     22721     22722     22725     22726
     22722     22725     22727     22723     22722     22724     22723     22722     22725
     22724     22722     22725     22726     22725     22727     22728     22730     22731
     22728     22730     22732     22728     22730     22733     22728     22734     22735
     22728     22734     22736     22728     22734     22737     22729     22728     22730
     22729     22728     22734     22730     22728     22734     22731     22730     22732
     22731     22730     22733     22732     22730     22733     22734     22737     22738
     22734     22737     22739     22734     22737     22740     22735     22734     22736
     22735     22734     22737     22736     22734     22737     22737     22740     22741
     22737     22740     22742     22737     22740     22743     22738     22737     22739
     22738     22737     22740     22739     22737     22740     22740     22743     22744
     22740     22743     22745     22740     22743     22749     22741     22740     22742
     22741     22740     22743     22742     22740     22743     22743     22745     22746
     22743     22745     22747     22743     22745     22748     22743     22749     22750
     22743     22749     22751     22743     22749     22752     22744     22743     22745
     22744     22743     22749     22745     22743     22749     22746     22745     22747
     22746     22745     22748     22747     22745     22748     22750     22749     22751
     22750     22749     22752     22751     22749     22752     22753     22754     22755
     22753     22754     22756     22753     22754     22769     22753     22757     22758
     22753     22757     22759     22753     22757     22760     22753     22761     22762
     22753     22761     22763     22753     22761     22764     22753     22765     22766
     22753     22765     22767     22753     22765     22768     22754     22753     22757
     22754     22753     22761     22754     22753     22765     22754     22769     22770
     22754     22769     22771     22754     22769     22775     22755     22754     22756
     22755     22754     22769     22756     22754     22769     22757     22753     22761
     22757     22753     22765     22758     22757     22759     22758     22757     22760
     22759     22757     22760     22761     22753     22765     22762     22761     22763
     22762     22761     22764     22763     22761     22764     22766     22765     22767
     22766     22765     22768     22767     22765     22768     22769     22775     22772
     22770     22769     22771     22770     22769     22775     22771     22769     22775
     22772     22776     22777     22773     22772     22774     22773     22772     22775
     22773     22772     22776     22774     22772     22775     22774     22772     22776
     22775     22772     22776     22776     22777     22778     22776     22777     22779
     22776     22777     22780     22777     22780     22781     22777     22780     22782
     22777     22780     22788     22778     22777     22779     22778     22777     22780
     22779     22777     22780     22780     22782     22783     22780     22788     22789
     22780     22788     22790     22780     22788     22791     22781     22780     22782
     22781     22780     22788     22782     22780     22788     22782     22783     22784
     22782     22783     22785     22783     22785     22786     22783     22785     22787
     22783     22785     22797     22784     22783     22785     22785     22797     22798
     22785     22797     22799     22785     22797     22800     22786     22785     22787
     22786     22785     22797     22787     22785     22797     22788     22791     22792
     22789     22788     22790     22789     22788     22791     22790     22788     22791
     22791     22792     22793     22791     22792     22794     22792     22794     22795
     22792     22794     22796     22792     22794     22844     22793     22792     22794
     22794     22844     22845     22794     22844     22846     22794     22844     22847
     22795     22794     22796     22795     22794     22844     22796     22794     22844
     22797     22800     22801     22797     22800     22802     22797     22800     22803
     22798     22797     22799     22798     22797     22800     22799     22797     22800
     22800     22803     22804     22800     22803     22805     22800     22803     22806
     22801     22800     22802     22801     22800     22803     22802     22800     22803
     22803     22806     22807     22803     22806     22808     22803     22806     22809
     22804     22803     22805     22804     22803     22806     22805     22803     22806
     22806     22809     22810     22806     22809     22811     22806     22809     22812
     22807     22806     22808     22807     22806     22809     22808     22806     22809
     22809     22812     22813     22809     22812     22814     22809     22812     22815
     22810     22809     22811     22810     22809     22812     22811     22809     22812
     22812     22815     22816     22812     22815     22817     22813     22812     22814
     22813     22812     22815     22814     22812     22815     22815     22817     22818
     22815     22817     22819     22816     22815     22817     22817     22819     22820
     22817     22819     22821     22817     22819     22822     22818     22817     22819
     22819     22822     22823     22819     22822     22824     22819     22822     22825
     22820     22819     22821     22820     22819     22822     22821     22819     22822
     22822     22825     22826     22822     22825     22827     22822     22825     22828
     22823     22822     22824     22823     22822     22825     22824     22822     22825
     22825     22828     22829     22825     22828     22830     22825     22828     22831
     22826     22825     22827     22826     22825     22828     22827     22825     22828
     22828     22831     22832     22828     22831     22833     22828     22831     22834
     22829     22828     22830     22829     22828     22831     22830     22828     22831
     22831     22834     22835     22831     22834     22836     22831     22834     22837
     22832     22831     22833     22832     22831     22834     22833     22831     22834
     22834     22837     22838     22834     22837     22839     22834     22837     22840
     22835     22834     22836     22835     22834     22837     22836     22834     22837
     22837     22840     22841     22837     22840     22842     22837     22840     22843
     22838     22837     22839     22838     22837     22840     22839     22837     22840
     22841     22840     22842     22841     22840     22843     22842     22840     22843
     22844     22847     22848     22844     22847     22849     22844     22847     22850
     22845     22844     22846     22845     22844     22847     22846     22844     22847
     22847     22850     22851     22847     22850     22852     22847     22850     22853
     22848     22847     22849     22848     22847     22850     22849     22847     22850
     22850     22853     22854     22850     22853     22855     22850     22853     22856
     22851     22850     22852     22851     22850     22853     22852     22850     22853
     22853     22856     22857     22853     22856     22858     22853     22856     22859
     22854     22853     22855     22854     22853     22856     22855     22853     22856
     22856     22859     22860     22856     22859     22861     22856     22859     22862
     22857     22856     22858     22857     22856     22859     22858     22856     22859
     22859     22862     22863     22859     22862     22864     22860     22859     22861
     22860     22859     22862     22861     22859     22862     22862     22864     22865
     22862     22864     22866     22863     22862     22864     22864     22866     22867
     22864     22866     22868     22864     22866     22869     22865     22864     22866
     22866     22869     22870     22866     22869     22871     22866     22869     22872
     22867     22866     22868     22867     22866     22869     22868     22866     22869
     22869     22872     22873     22869     22872     22874     22869     22872     22875
     22870     22869     22871     22870     22869     22872     22871     22869     22872
     22872     22875     22876     22872     22875     22877     22872     22875     22878
     22873     22872     22874     22873     22872     22875     22874     22872     22875
     22875     22878     22879     22875     22878     22880     22875     22878     22881
     22876     22875     22877     22876     22875     22878     22877     22875     22878
     22878     22881     22882     22878     22881     22883     22878     22881     22884
     22879     22878     22880     22879     22878     22881     22880     22878     22881
     22881     22884     22885     22881     22884     22886     22881     22884     22887
     22882     22881     22883     22882     22881     22884     22883     22881     22884
     22884     22887     22888     22884     22887     22889     22884     22887     22890
     22885     22884     22886     22885     22884     22887     22886     22884     22887
     22888     22887     22889     22888     22887     22890     22889     22887     22890
     22891     22893     22894     22891     22895     22896     22891     22895     22897
     22891     22895     22898     22891     22937     22934     22891     22937     22938
     22891     22937     22939     22892     22891     22893     22892     22891     22895
     22892     22891     22937     22893     22891     22895     22893     22891     22937
     22895     22891     22937     22895     22898     22899     22895     22898     22929
     22896     22895     22897     22896     22895     22898     22897     22895     22898
     22898     22899     22900     22898     22899     22901     22898     22929     22927
     22898     22929     22930     22898     22929     22934     22899     22898     22929
     22899     22901     22902     22899     22901     22903     22899     22901     22904
     22900     22899     22901     22901     22904     22905     22901     22904     22906
     22901     22904     22927     22902     22901     22903     22902     22901     22904
     22903     22901     22904     22904     22906     22907     22904     22906     22908
     22904     22906     22916     22904     22927     22924     22904     22927     22928
     22904     22927     22929     22905     22904     22906     22905     22904     22927
     22906     22904     22927     22906     22908     22909     22906     22908     22910
     22906     22908     22911     22906     22916     22914     22906     22916     22917
     22906     22916     22921     22907     22906     22908     22907     22906     22916
     22908     22906     22916     22908     22911     22912     22908     22911     22913
     22908     22911     22914     22909     22908     22910     22909     22908     22911
     22910     22908     22911     22911     22914     22915     22911     22914     22916
     22911     22914     22940     22912     22911     22913     22912     22911     22914
     22913     22911     22914     22914     22916     22917     22914     22916     22921
     22914     22940     22941     22914     22940     22942     22914     22940     22946
     22915     22914     22916     22915     22914     22940     22916     22914     22940
     22916     22917     22918     22916     22917     22919     22916     22917     22920
     22916     22921     22922     22916     22921     22923     22916     22921     22924
     22917     22916     22921     22918     22917     22919     22918     22917     22920
     22919     22917     22920     22921     22924     22925     22921     22924     22926
     22921     22924     22927     22922     22921     22923     22922     22921     22924
     22923     22921     22924     22924     22927     22928     22924     22927     22929
     22925     22924     22926     22925     22924     22927     22926     22924     22927
     22927     22929     22930     22927     22929     22934     22928     22927     22929
     22929     22930     22931     22929     22930     22932     22929     22930     22933
     22929     22934     22935     22929     22934     22936     22929     22934     22937
     22930     22929     22934     22931     22930     22932     22931     22930     22933
     22932     22930     22933     22934     22937     22938     22934     22937     22939
     22935     22934     22936     22935     22934     22937     22936     22934     22937
     22938     22937     22939     22940     22942     22943     22940     22942     22944
     22940     22942     22945     22940     22946     22947     22940     22946     22948
     22940     22946     22949     22941     22940     22942     22941     22940     22946
     22942     22940     22946     22943     22942     22944     22943     22942     22945
     22944     22942     22945     22946     22949     22950     22946     22949     22951
     22946     22949     22952     22947     22946     22948     22947     22946     22949
     22948     22946     22949     22949     22952     22953     22949     22952     22954
     22949     22952     22955     22950     22949     22951     22950     22949     22952
     22951     22949     22952     22952     22955     22956     22952     22955     22957
     22952     22955     22961     22953     22952     22954     22953     22952     22955
     22954     22952     22955     22955     22957     22958     22955     22957     22959
     22955     22957     22960     22955     22961     22962     22955     22961     22963
     22955     22961     22964     22956     22955     22957     22956     22955     22961
     22957     22955     22961     22958     22957     22959     22958     22957     22960
     22959     22957     22960     22962     22961     22963     22962     22961     22964
     22963     22961     22964     22965     22969     22970     22965     22969     22971
     22965     22969     22972     22966     22965     22967     22966     22965     22968
     22966     22965     22969     22967     22965     22968     22967     22965     22969
     22968     22965     22969     22969     22972     22973     22969     22972     22974
     22969     22972     22979     22970     22969     22971     22970     22969     22972
     22971     22969     22972     22972     22979     22975     22973     22972     22974
     22973     22972     22979     22974     22972     22979     22975     22978     22980
     22976     22975     22977     22976     22975     22978     22976     22975     22979
     22977     22975     22978     22977     22975     22979     22978     22975     22979
     22978     22980     22981     22978     22980     22982     22978     22980     22983
     22980     22983     22984     22980     22983     22985     22980     22983     22991
     22981     22980     22982     22981     22980     22983     22982     22980     22983
     22983     22985     22986     22983     22991     22992     22983     22991     22993
     22983     22991     22994     22984     22983     22985     22984     22983     22991
     22985     22983     22991     22985     22986     22987     22985     22986     22988
     22986     22988     22989     22986     22988     22990     22986     22988     23000
     22987     22986     22988     22988     23000     23001     22988     23000     23002
     22988     23000     23003     22989     22988     22990     22989     22988     23000
     22990     22988     23000     22991     22994     22995     22992     22991     22993
     22992     22991     22994     22993     22991     22994     22994     22995     22996
     22994     22995     22997     22995     22997     22998     22995     22997     22999
     22995     22997     23047     22996     22995     22997     22997     23047     23048
     22997     23047     23049     22997     23047     23050     22998     22997     22999
     22998     22997     23047     22999     22997     23047     23000     23003     23004
     23000     23003     23005     23000     23003     23006     23001     23000     23002
     23001     23000     23003     23002     23000     23003     23003     23006     23007
     23003     23006     23008     23003     23006     23009     23004     23003     23005
     23004     23003     23006     23005     23003     23006     23006     23009     23010
     23006     23009     23011     23006     23009     23012     23007     23006     23008
     23007     23006     23009     23008     23006     23009     23009     23012     23013
     23009     23012     23014     23009     23012     23015     23010     23009     23011
     23010     23009     23012     23011     23009     23012     23012     23015     23016
     23012     23015     23017     23012     23015     23018     23013     23012     23014
     23013     23012     23015     23014     23012     23015     23015     23018     23019
     23015     23018     23020     23016     23015     23017     23016     23015     23018
     23017     23015     23018     23018     23020     23021     23018     23020     23022
     23019     23018     23020     23020     23022     23023     23020     23022     23024
     23020     23022     23025     23021     23020     23022     23022     23025     23026
     23022     23025     23027     23022     23025     23028     23023     23022     23024
     23023     23022     23025     23024     23022     23025     23025     23028     23029
     23025     23028     23030     23025     23028     23031     23026     23025     23027
     23026     23025     23028     23027     23025     23028     23028     23031     23032
     23028     23031     23033     23028     23031     23034     23029     23028     23030
     23029     23028     23031     23030     23028     23031     23031     23034     23035
     23031     23034     23036     23031     23034     23037     23032     23031     23033
     23032     23031     23034     23033     23031     23034     23034     23037     23038
     23034     23037     23039     23034     23037     23040     23035     23034     23036
     23035     23034     23037     23036     23034     23037     23037     23040     23041
     23037     23040     23042     23037     23040     23043     23038     23037     23039
     23038     23037     23040     23039     23037     23040     23040     23043     23044
     23040     23043     23045     23040     23043     23046     23041     23040     23042
     23041     23040     23043     23042     23040     23043     23044     23043     23045
     23044     23043     23046     23045     23043     23046     23047     23050     23051
     23047     23050     23052     23047     23050     23053     23048     23047     23049
     23048     23047     23050     23049     23047     23050     23050     23053     23054
     23050     23053     23055     23050     23053     23056     23051     23050     23052
     23051     23050     23053     23052     23050     23053     23053     23056     23057
     23053     23056     23058     23053     23056     23059     23054     23053     23055
     23054     23053     23056     23055     23053     23056     23056     23059     23060
     23056     23059     23061     23056     23059     23062     23057     23056     23058
     23057     23056     23059     23058     23056     23059     23059     23062     23063
     23059     23062     23064     23059     23062     23065     23060     23059     23061
     23060     23059     23062     23061     23059     23062     23062     23065     23066
     23062     23065     23067     23063     23062     23064     23063     23062     23065
     23064     23062     23065     23065     23067     23068     23065     23067     23069
     23066     23065     23067     23067     23069     23070     23067     23069     23071
     23067     23069     23072     23068     23067     23069     23069     23072     23073
     23069     23072     23074     23069     23072     23075     23070     23069     23071
     23070     23069     23072     23071     23069     23072     23072     23075     23076
     23072     23075     23077     23072     23075     23078     23073     23072     23074
     23073     23072     23075     23074     23072     23075     23075     23078     23079
     23075     23078     23080     23075     23078     23081     23076     23075     23077
     23076     23075     23078     23077     23075     23078     23078     23081     23082
     23078     23081     23083     23078     23081     23084     23079     23078     23080
     23079     23078     23081     23080     23078     23081     23081     23084     23085
     23081     23084     23086     23081     23084     23087     23082     23081     23083
     23082     23081     23084     23083     23081     23084     23084     23087     23088
     23084     23087     23089     23084     23087     23090     23085     23084     23086
     23085     23084     23087     23086     23084     23087     23087     23090     23091
     23087     23090     23092     23087     23090     23093     23088     23087     23089
     23088     23087     23090     23089     23087     23090     23091     23090     23092
     23091     23090     23093     23092     23090     23093     23094     23095     23096
     23094     23095     23097     23094     23095     23110     23094     23098     23099
     23094     23098     23100     23094     23098     23101     23094     23102     23103
     23094     23102     23104     23094     23102     23105     23094     23106     23107
     23094     23106     23108     23094     23106     23109     23095     23094     23098
     23095     23094     23102     23095     23094     23106     23095     23110     23111
     23095     23110     23112     23095     23110     23116     23096     23095     23097
     23096     23095     23110     23097     23095     23110     23098     23094     23102
     23098     23094     23106     23099     23098     23100     23099     23098     23101
     23100     23098     23101     23102     23094     23106     23103     23102     23104
     23103     23102     23105     23104     23102     23105     23107     23106     23108
     23107     23106     23109     23108     23106     23109     23110     23116     23113
     23111     23110     23112     23111     23110     23116     23112     23110     23116
     23113     23117     23118     23114     23113     23115     23114     23113     23116
     23114     23113     23117     23115     23113     23116     23115     23113     23117
     23116     23113     23117     23117     23118     23119     23117     23118     23120
     23117     23118     23121     23118     23121     23122     23118     23121     23123
     23118     23121     23129     23119     23118     23120     23119     23118     23121
     23120     23118     23121     23121     23123     23124     23121     23129     23130
     23121     23129     23131     23121     23129     23132     23122     23121     23123
     23122     23121     23129     23123     23121     23129     23123     23124     23125
     23123     23124     23126     23124     23126     23127     23124     23126     23128
     23124     23126     23138     23125     23124     23126     23126     23138     23139
     23126     23138     23140     23126     23138     23141     23127     23126     23128
     23127     23126     23138     23128     23126     23138     23129     23132     23133
     23130     23129     23131     23130     23129     23132     23131     23129     23132
     23132     23133     23134     23132     23133     23135     23133     23135     23136
     23133     23135     23137     23133     23135     23185     23134     23133     23135
     23135     23185     23186     23135     23185     23187     23135     23185     23188
     23136     23135     23137     23136     23135     23185     23137     23135     23185
     23138     23141     23142     23138     23141     23143     23138     23141     23144
     23139     23138     23140     23139     23138     23141     23140     23138     23141
     23141     23144     23145     23141     23144     23146     23141     23144     23147
     23142     23141     23143     23142     23141     23144     23143     23141     23144
     23144     23147     23148     23144     23147     23149     23144     23147     23150
     23145     23144     23146     23145     23144     23147     23146     23144     23147
     23147     23150     23151     23147     23150     23152     23147     23150     23153
     23148     23147     23149     23148     23147     23150     23149     23147     23150
     23150     23153     23154     23150     23153     23155     23150     23153     23156
     23151     23150     23152     23151     23150     23153     23152     23150     23153
     23153     23156     23157     23153     23156     23158     23154     23153     23155
     23154     23153     23156     23155     23153     23156     23156     23158     23159
     23156     23158     23160     23157     23156     23158     23158     23160     23161
     23158     23160     23162     23158     23160     23163     23159     23158     23160
     23160     23163     23164     23160     23163     23165     23160     23163     23166
     23161     23160     23162     23161     23160     23163     23162     23160     23163
     23163     23166     23167     23163     23166     23168     23163     23166     23169
     23164     23163     23165     23164     23163     23166     23165     23163     23166
     23166     23169     23170     23166     23169     23171     23166     23169     23172
     23167     23166     23168     23167     23166     23169     23168     23166     23169
     23169     23172     23173     23169     23172     23174     23169     23172     23175
     23170     23169     23171     23170     23169     23172     23171     23169     23172
     23172     23175     23176     23172     23175     23177     23172     23175     23178
     23173     23172     23174     23173     23172     23175     23174     23172     23175
     23175     23178     23179     23175     23178     23180     23175     23178     23181
     23176     23175     23177     23176     23175     23178     23177     23175     23178
     23178     23181     23182     23178     23181     23183     23178     23181     23184
     23179     23178     23180     23179     23178     23181     23180     23178     23181
     23182     23181     23183     23182     23181     23184     23183     23181     23184
     23185     23188     23189     23185     23188     23190     23185     23188     23191
     23186     23185     23187     23186     23185     23188     23187     23185     23188
     23188     23191     23192     23188     23191     23193     23188     23191     23194
     23189     23188     23190     23189     23188     23191     23190     23188     23191
     23191     23194     23195     23191     23194     23196     23191     23194     23197
     23192     23191     23193     23192     23191     23194     23193     23191     23194
     23194     23197     23198     23194     23197     23199     23194     23197     23200
     23195     23194     23196     23195     23194     23197     23196     23194     23197
     23197     23200     23201     23197     23200     23202     23197     23200     23203
     23198     23197     23199     23198     23197     23200     23199     23197     23200
     23200     23203     23204     23200     23203     23205     23201     23200     23202
     23201     23200     23203     23202     23200     23203     23203     23205     23206
     23203     23205     23207     23204     23203     23205     23205     23207     23208
     23205     23207     23209     23205     23207     23210     23206     23205     23207
     23207     23210     23211     23207     23210     23212     23207     23210     23213
     23208     23207     23209     23208     23207     23210     23209     23207     23210
     23210     23213     23214     23210     23213     23215     23210     23213     23216
     23211     23210     23212     23211     23210     23213     23212     23210     23213
     23213     23216     23217     23213     23216     23218     23213     23216     23219
     23214     23213     23215     23214     23213     23216     23215     23213     23216
     23216     23219     23220     23216     23219     23221     23216     23219     23222
     23217     23216     23218     23217     23216     23219     23218     23216     23219
     23219     23222     23223     23219     23222     23224     23219     23222     23225
     23220     23219     23221     23220     23219     23222     23221     23219     23222
     23222     23225     23226     23222     23225     23227     23222     23225     23228
     23223     23222     23224     23223     23222     23225     23224     23222     23225
     23225     23228     23229     23225     23228     23230     23225     23228     23231
     23226     23225     23227     23226     23225     23228     23227     23225     23228
     23229     23228     23230     23229     23228     23231     23230     23228     23231
     23232     23236     23237     23232     23236     23238     23232     23236     23239
     23233     23232     23234     23233     23232     23235     23233     23232     23236
     23234     23232     23235     23234     23232     23236     23235     23232     23236
     23236     23239     23240     23236     23239     23241     23236     23239     23246
     23237     23236     23238     23237     23236     23239     23238     23236     23239
     23239     23246     23242     23240     23239     23241     23240     23239     23246
     23241     23239     23246     23242     23245     23247     23243     23242     23244
     23243     23242     23245     23243     23242     23246     23244     23242     23245
     23244     23242     23246     23245     23242     23246     23245     23247     23248
     23245     23247     23249     23245     23247     23250     23247     23250     23251
     23247     23250     23252     23247     23250     23258     23248     23247     23249
     23248     23247     23250     23249     23247     23250     23250     23252     23253
     23250     23258     23259     23250     23258     23260     23250     23258     23261
     23251     23250     23252     23251     23250     23258     23252     23250     23258
     23252     23253     23254     23252     23253     23255     23253     23255     23256
     23253     23255     23257     23253     23255     23267     23254     23253     23255
     23255     23267     23268     23255     23267     23269     23255     23267     23270
     23256     23255     23257     23256     23255     23267     23257     23255     23267
     23258     23261     23262     23259     23258     23260     23259     23258     23261
     23260     23258     23261     23261     23262     23263     23261     23262     23264
     23262     23264     23265     23262     23264     23266     23262     23264     23314
     23263     23262     23264     23264     23314     23315     23264     23314     23316
     23264     23314     23317     23265     23264     23266     23265     23264     23314
     23266     23264     23314     23267     23270     23271     23267     23270     23272
     23267     23270     23273     23268     23267     23269     23268     23267     23270
     23269     23267     23270     23270     23273     23274     23270     23273     23275
     23270     23273     23276     23271     23270     23272     23271     23270     23273
     23272     23270     23273     23273     23276     23277     23273     23276     23278
     23273     23276     23279     23274     23273     23275     23274     23273     23276
     23275     23273     23276     23276     23279     23280     23276     23279     23281
     23276     23279     23282     23277     23276     23278     23277     23276     23279
     23278     23276     23279     23279     23282     23283     23279     23282     23284
     23279     23282     23285     23280     23279     23281     23280     23279     23282
     23281     23279     23282     23282     23285     23286     23282     23285     23287
     23283     23282     23284     23283     23282     23285     23284     23282     23285
     23285     23287     23288     23285     23287     23289     23286     23285     23287
     23287     23289     23290     23287     23289     23291     23287     23289     23292
     23288     23287     23289     23289     23292     23293     23289     23292     23294
     23289     23292     23295     23290     23289     23291     23290     23289     23292
     23291     23289     23292     23292     23295     23296     23292     23295     23297
     23292     23295     23298     23293     23292     23294     23293     23292     23295
     23294     23292     23295     23295     23298     23299     23295     23298     23300
     23295     23298     23301     23296     23295     23297     23296     23295     23298
     23297     23295     23298     23298     23301     23302     23298     23301     23303
     23298     23301     23304     23299     23298     23300     23299     23298     23301
     23300     23298     23301     23301     23304     23305     23301     23304     23306
     23301     23304     23307     23302     23301     23303     23302     23301     23304
     23303     23301     23304     23304     23307     23308     23304     23307     23309
     23304     23307     23310     23305     23304     23306     23305     23304     23307
     23306     23304     23307     23307     23310     23311     23307     23310     23312
     23307     23310     23313     23308     23307     23309     23308     23307     23310
     23309     23307     23310     23311     23310     23312     23311     23310     23313
     23312     23310     23313     23314     23317     23318     23314     23317     23319
     23314     23317     23320     23315     23314     23316     23315     23314     23317
     23316     23314     23317     23317     23320     23321     23317     23320     23322
     23317     23320     23323     23318     23317     23319     23318     23317     23320
     23319     23317     23320     23320     23323     23324     23320     23323     23325
     23320     23323     23326     23321     23320     23322     23321     23320     23323
     23322     23320     23323     23323     23326     23327     23323     23326     23328
     23323     23326     23329     23324     23323     23325     23324     23323     23326
     23325     23323     23326     23326     23329     23330     23326     23329     23331
     23326     23329     23332     23327     23326     23328     23327     23326     23329
     23328     23326     23329     23329     23332     23333     23329     23332     23334
     23330     23329     23331     23330     23329     23332     23331     23329     23332
     23332     23334     23335     23332     23334     23336     23333     23332     23334
     23334     23336     23337     23334     23336     23338     23334     23336     23339
     23335     23334     23336     23336     23339     23340     23336     23339     23341
     23336     23339     23342     23337     23336     23338     23337     23336     23339
     23338     23336     23339     23339     23342     23343     23339     23342     23344
     23339     23342     23345     23340     23339     23341     23340     23339     23342
     23341     23339     23342     23342     23345     23346     23342     23345     23347
     23342     23345     23348     23343     23342     23344     23343     23342     23345
     23344     23342     23345     23345     23348     23349     23345     23348     23350
     23345     23348     23351     23346     23345     23347     23346     23345     23348
     23347     23345     23348     23348     23351     23352     23348     23351     23353
     23348     23351     23354     23349     23348     23350     23349     23348     23351
     23350     23348     23351     23351     23354     23355     23351     23354     23356
     23351     23354     23357     23352     23351     23353     23352     23351     23354
     23353     23351     23354     23354     23357     23358     23354     23357     23359
     23354     23357     23360     23355     23354     23356     23355     23354     23357
     23356     23354     23357     23358     23357     23359     23358     23357     23360
     23359     23357     23360     23361     23362     23363     23361     23362     23364
     23361     23362     23377     23361     23365     23366     23361     23365     23367
     23361     23365     23368     23361     23369     23370     23361     23369     23371
     23361     23369     23372     23361     23373     23374     23361     23373     23375
     23361     23373     23376     23362     23361     23365     23362     23361     23369
     23362     23361     23373     23362     23377     23378     23362     23377     23379
     23362     23377     23383     23363     23362     23364     23363     23362     23377
     23364     23362     23377     23365     23361     23369     23365     23361     23373
     23366     23365     23367     23366     23365     23368     23367     23365     23368
     23369     23361     23373     23370     23369     23371     23370     23369     23372
     23371     23369     23372     23374     23373     23375     23374     23373     23376
     23375     23373     23376     23377     23383     23380     23378     23377     23379
     23378     23377     23383     23379     23377     23383     23380     23384     23385
     23381     23380     23382     23381     23380     23383     23381     23380     23384
     23382     23380     23383     23382     23380     23384     23383     23380     23384
     23384     23385     23386     23384     23385     23387     23384     23385     23388
     23385     23388     23389     23385     23388     23390     23385     23388     23396
     23386     23385     23387     23386     23385     23388     23387     23385     23388
     23388     23390     23391     23388     23396     23397     23388     23396     23398
     23388     23396     23399     23389     23388     23390     23389     23388     23396
     23390     23388     23396     23390     23391     23392     23390     23391     23393
     23391     23393     23394     23391     23393     23395     23391     23393     23405
     23392     23391     23393     23393     23405     23406     23393     23405     23407
     23393     23405     23408     23394     23393     23395     23394     23393     23405
     23395     23393     23405     23396     23399     23400     23397     23396     23398
     23397     23396     23399     23398     23396     23399     23399     23400     23401
     23399     23400     23402     23400     23402     23403     23400     23402     23404
     23400     23402     23452     23401     23400     23402     23402     23452     23453
     23402     23452     23454     23402     23452     23455     23403     23402     23404
     23403     23402     23452     23404     23402     23452     23405     23408     23409
     23405     23408     23410     23405     23408     23411     23406     23405     23407
     23406     23405     23408     23407     23405     23408     23408     23411     23412
     23408     23411     23413     23408     23411     23414     23409     23408     23410
     23409     23408     23411     23410     23408     23411     23411     23414     23415
     23411     23414     23416     23411     23414     23417     23412     23411     23413
     23412     23411     23414     23413     23411     23414     23414     23417     23418
     23414     23417     23419     23414     23417     23420     23415     23414     23416
     23415     23414     23417     23416     23414     23417     23417     23420     23421
     23417     23420     23422     23417     23420     23423     23418     23417     23419
     23418     23417     23420     23419     23417     23420     23420     23423     23424
     23420     23423     23425     23421     23420     23422     23421     23420     23423
     23422     23420     23423     23423     23425     23426     23423     23425     23427
     23424     23423     23425     23425     23427     23428     23425     23427     23429
     23425     23427     23430     23426     23425     23427     23427     23430     23431
     23427     23430     23432     23427     23430     23433     23428     23427     23429
     23428     23427     23430     23429     23427     23430     23430     23433     23434
     23430     23433     23435     23430     23433     23436     23431     23430     23432
     23431     23430     23433     23432     23430     23433     23433     23436     23437
     23433     23436     23438     23433     23436     23439     23434     23433     23435
     23434     23433     23436     23435     23433     23436     23436     23439     23440
     23436     23439     23441     23436     23439     23442     23437     23436     23438
     23437     23436     23439     23438     23436     23439     23439     23442     23443
     23439     23442     23444     23439     23442     23445     23440     23439     23441
     23440     23439     23442     23441     23439     23442     23442     23445     23446
     23442     23445     23447     23442     23445     23448     23443     23442     23444
     23443     23442     23445     23444     23442     23445     23445     23448     23449
     23445     23448     23450     23445     23448     23451     23446     23445     23447
     23446     23445     23448     23447     23445     23448     23449     23448     23450
     23449     23448     23451     23450     23448     23451     23452     23455     23456
     23452     23455     23457     23452     23455     23458     23453     23452     23454
     23453     23452     23455     23454     23452     23455     23455     23458     23459
     23455     23458     23460     23455     23458     23461     23456     23455     23457
     23456     23455     23458     23457     23455     23458     23458     23461     23462
     23458     23461     23463     23458     23461     23464     23459     23458     23460
     23459     23458     23461     23460     23458     23461     23461     23464     23465
     23461     23464     23466     23461     23464     23467     23462     23461     23463
     23462     23461     23464     23463     23461     23464     23464     23467     23468
     23464     23467     23469     23464     23467     23470     23465     23464     23466
     23465     23464     23467     23466     23464     23467     23467     23470     23471
     23467     23470     23472     23468     23467     23469     23468     23467     23470
     23469     23467     23470     23470     23472     23473     23470     23472     23474
     23471     23470     23472     23472     23474     23475     23472     23474     23476
     23472     23474     23477     23473     23472     23474     23474     23477     23478
     23474     23477     23479     23474     23477     23480     23475     23474     23476
     23475     23474     23477     23476     23474     23477     23477     23480     23481
     23477     23480     23482     23477     23480     23483     23478     23477     23479
     23478     23477     23480     23479     23477     23480     23480     23483     23484
     23480     23483     23485     23480     23483     23486     23481     23480     23482
     23481     23480     23483     23482     23480     23483     23483     23486     23487
     23483     23486     23488     23483     23486     23489     23484     23483     23485
     23484     23483     23486     23485     23483     23486     23486     23489     23490
     23486     23489     23491     23486     23489     23492     23487     23486     23488
     23487     23486     23489     23488     23486     23489     23489     23492     23493
     23489     23492     23494     23489     23492     23495     23490     23489     23491
     23490     23489     23492     23491     23489     23492     23492     23495     23496
     23492     23495     23497     23492     23495     23498     23493     23492     23494
     23493     23492     23495     23494     23492     23495     23496     23495     23497
     23496     23495     23498     23497     23495     23498     23499     23500     23501
     23499     23500     23502     23499     23500     23515     23499     23503     23504
     23499     23503     23505     23499     23503     23506     23499     23507     23508
     23499     23507     23509     23499     23507     23510     23499     23511     23512
     23499     23511     23513     23499     23511     23514     23500     23499     23503
     23500     23499     23507     23500     23499     23511     23500     23515     23516
     23500     23515     23517     23500     23515     23521     23501     23500     23502
     23501     23500     23515     23502     23500     23515     23503     23499     23507
     23503     23499     23511     23504     23503     23505     23504     23503     23506
     23505     23503     23506     23507     23499     23511     23508     23507     23509
     23508     23507     23510     23509     23507     23510     23512     23511     23513
     23512     23511     23514     23513     23511     23514     23515     23521     23518
     23516     23515     23517     23516     23515     23521     23517     23515     23521
     23518     23522     23523     23519     23518     23520     23519     23518     23521
     23519     23518     23522     23520     23518     23521     23520     23518     23522
     23521     23518     23522     23522     23523     23524     23522     23523     23525
     23522     23523     23526     23523     23526     23527     23523     23526     23528
     23523     23526     23534     23524     23523     23525     23524     23523     23526
     23525     23523     23526     23526     23528     23529     23526     23534     23535
     23526     23534     23536     23526     23534     23537     23527     23526     23528
     23527     23526     23534     23528     23526     23534     23528     23529     23530
     23528     23529     23531     23529     23531     23532     23529     23531     23533
     23529     23531     23543     23530     23529     23531     23531     23543     23544
     23531     23543     23545     23531     23543     23546     23532     23531     23533
     23532     23531     23543     23533     23531     23543     23534     23537     23538
     23535     23534     23536     23535     23534     23537     23536     23534     23537
     23537     23538     23539     23537     23538     23540     23538     23540     23541
     23538     23540     23542     23538     23540     23590     23539     23538     23540
     23540     23590     23591     23540     23590     23592     23540     23590     23593
     23541     23540     23542     23541     23540     23590     23542     23540     23590
     23543     23546     23547     23543     23546     23548     23543     23546     23549
     23544     23543     23545     23544     23543     23546     23545     23543     23546
     23546     23549     23550     23546     23549     23551     23546     23549     23552
     23547     23546     23548     23547     23546     23549     23548     23546     23549
     23549     23552     23553     23549     23552     23554     23549     23552     23555
     23550     23549     23551     23550     23549     23552     23551     23549     23552
     23552     23555     23556     23552     23555     23557     23552     23555     23558
     23553     23552     23554     23553     23552     23555     23554     23552     23555
     23555     23558     23559     23555     23558     23560     23555     23558     23561
     23556     23555     23557     23556     23555     23558     23557     23555     23558
     23558     23561     23562     23558     23561     23563     23559     23558     23560
     23559     23558     23561     23560     23558     23561     23561     23563     23564
     23561     23563     23565     23562     23561     23563     23563     23565     23566
     23563     23565     23567     23563     23565     23568     23564     23563     23565
     23565     23568     23569     23565     23568     23570     23565     23568     23571
     23566     23565     23567     23566     23565     23568     23567     23565     23568
     23568     23571     23572     23568     23571     23573     23568     23571     23574
     23569     23568     23570     23569     23568     23571     23570     23568     23571
     23571     23574     23575     23571     23574     23576     23571     23574     23577
     23572     23571     23573     23572     23571     23574     23573     23571     23574
     23574     23577     23578     23574     23577     23579     23574     23577     23580
     23575     23574     23576     23575     23574     23577     23576     23574     23577
     23577     23580     23581     23577     23580     23582     23577     23580     23583
     23578     23577     23579     23578     23577     23580     23579     23577     23580
     23580     23583     23584     23580     23583     23585     23580     23583     23586
     23581     23580     23582     23581     23580     23583     23582     23580     23583
     23583     23586     23587     23583     23586     23588     23583     23586     23589
     23584     23583     23585     23584     23583     23586     23585     23583     23586
     23587     23586     23588     23587     23586     23589     23588     23586     23589
     23590     23593     23594     23590     23593     23595     23590     23593     23596
     23591     23590     23592     23591     23590     23593     23592     23590     23593
     23593     23596     23597     23593     23596     23598     23593     23596     23599
     23594     23593     23595     23594     23593     23596     23595     23593     23596
     23596     23599     23600     23596     23599     23601     23596     23599     23602
     23597     23596     23598     23597     23596     23599     23598     23596     23599
     23599     23602     23603     23599     23602     23604     23599     23602     23605
     23600     23599     23601     23600     23599     23602     23601     23599     23602
     23602     23605     23606     23602     23605     23607     23602     23605     23608
     23603     23602     23604     23603     23602     23605     23604     23602     23605
     23605     23608     23609     23605     23608     23610     23606     23605     23607
     23606     23605     23608     23607     23605     23608     23608     23610     23611
     23608     23610     23612     23609     23608     23610     23610     23612     23613
     23610     23612     23614     23610     23612     23615     23611     23610     23612
     23612     23615     23616     23612     23615     23617     23612     23615     23618
     23613     23612     23614     23613     23612     23615     23614     23612     23615
     23615     23618     23619     23615     23618     23620     23615     23618     23621
     23616     23615     23617     23616     23615     23618     23617     23615     23618
     23618     23621     23622     23618     23621     23623     23618     23621     23624
     23619     23618     23620     23619     23618     23621     23620     23618     23621
     23621     23624     23625     23621     23624     23626     23621     23624     23627
     23622     23621     23623     23622     23621     23624     23623     23621     23624
     23624     23627     23628     23624     23627     23629     23624     23627     23630
     23625     23624     23626     23625     23624     23627     23626     23624     23627
     23627     23630     23631     23627     23630     23632     23627     23630     23633
     23628     23627     23629     23628     23627     23630     23629     23627     23630
     23630     23633     23634     23630     23633     23635     23630     23633     23636
     23631     23630     23632     23631     23630     23633     23632     23630     23633
     23634     23633     23635     23634     23633     23636     23635     23633     23636
     23637     23638     23639     23637     23638     23640     23637     23638     23653
     23637     23641     23642     23637     23641     23643     23637     23641     23644
     23637     23645     23646     23637     23645     23647     23637     23645     23648
     23637     23649     23650     23637     23649     23651     23637     23649     23652
     23638     23637     23641     23638     23637     23645     23638     23637     23649
     23638     23653     23654     23638     23653     23655     23638     23653     23659
     23639     23638     23640     23639     23638     23653     23640     23638     23653
     23641     23637     23645     23641     23637     23649     23642     23641     23643
     23642     23641     23644     23643     23641     23644     23645     23637     23649
     23646     23645     23647     23646     23645     23648     23647     23645     23648
     23650     23649     23651     23650     23649     23652     23651     23649     23652
     23653     23659     23656     23654     23653     23655     23654     23653     23659
     23655     23653     23659     23656     23660     23661     23657     23656     23658
     23657     23656     23659     23657     23656     23660     23658     23656     23659
     23658     23656     23660     23659     23656     23660     23660     23661     23662
     23660     23661     23663     23660     23661     23664     23661     23664     23665
     23661     23664     23666     23661     23664     23672     23662     23661     23663
     23662     23661     23664     23663     23661     23664     23664     23666     23667
     23664     23672     23673     23664     23672     23674     23664     23672     23675
     23665     23664     23666     23665     23664     23672     23666     23664     23672
     23666     23667     23668     23666     23667     23669     23667     23669     23670
     23667     23669     23671     23667     23669     23681     23668     23667     23669
     23669     23681     23682     23669     23681     23683     23669     23681     23684
     23670     23669     23671     23670     23669     23681     23671     23669     23681
     23672     23675     23676     23673     23672     23674     23673     23672     23675
     23674     23672     23675     23675     23676     23677     23675     23676     23678
     23676     23678     23679     23676     23678     23680     23676     23678     23728
     23677     23676     23678     23678     23728     23729     23678     23728     23730
     23678     23728     23731     23679     23678     23680     23679     23678     23728
     23680     23678     23728     23681     23684     23685     23681     23684     23686
     23681     23684     23687     23682     23681     23683     23682     23681     23684
     23683     23681     23684     23684     23687     23688     23684     23687     23689
     23684     23687     23690     23685     23684     23686     23685     23684     23687
     23686     23684     23687     23687     23690     23691     23687     23690     23692
     23687     23690     23693     23688     23687     23689     23688     23687     23690
     23689     23687     23690     23690     23693     23694     23690     23693     23695
     23690     23693     23696     23691     23690     23692     23691     23690     23693
     23692     23690     23693     23693     23696     23697     23693     23696     23698
     23693     23696     23699     23694     23693     23695     23694     23693     23696
     23695     23693     23696     23696     23699     23700     23696     23699     23701
     23697     23696     23698     23697     23696     23699     23698     23696     23699
     23699     23701     23702     23699     23701     23703     23700     23699     23701
     23701     23703     23704     23701     23703     23705     23701     23703     23706
     23702     23701     23703     23703     23706     23707     23703     23706     23708
     23703     23706     23709     23704     23703     23705     23704     23703     23706
     23705     23703     23706     23706     23709     23710     23706     23709     23711
     23706     23709     23712     23707     23706     23708     23707     23706     23709
     23708     23706     23709     23709     23712     23713     23709     23712     23714
     23709     23712     23715     23710     23709     23711     23710     23709     23712
     23711     23709     23712     23712     23715     23716     23712     23715     23717
     23712     23715     23718     23713     23712     23714     23713     23712     23715
     23714     23712     23715     23715     23718     23719     23715     23718     23720
     23715     23718     23721     23716     23715     23717     23716     23715     23718
     23717     23715     23718     23718     23721     23722     23718     23721     23723
     23718     23721     23724     23719     23718     23720     23719     23718     23721
     23720     23718     23721     23721     23724     23725     23721     23724     23726
     23721     23724     23727     23722     23721     23723     23722     23721     23724
     23723     23721     23724     23725     23724     23726     23725     23724     23727
     23726     23724     23727     23728     23731     23732     23728     23731     23733
     23728     23731     23734     23729     23728     23730     23729     23728     23731
     23730     23728     23731     23731     23734     23735     23731     23734     23736
     23731     23734     23737     23732     23731     23733     23732     23731     23734
     23733     23731     23734     23734     23737     23738     23734     23737     23739
     23734     23737     23740     23735     23734     23736     23735     23734     23737
     23736     23734     23737     23737     23740     23741     23737     23740     23742
     23737     23740     23743     23738     23737     23739     23738     23737     23740
     23739     23737     23740     23740     23743     23744     23740     23743     23745
     23740     23743     23746     23741     23740     23742     23741     23740     23743
     23742     23740     23743     23743     23746     23747     23743     23746     23748
     23744     23743     23745     23744     23743     23746     23745     23743     23746
     23746     23748     23749     23746     23748     23750     23747     23746     23748
     23748     23750     23751     23748     23750     23752     23748     23750     23753
     23749     23748     23750     23750     23753     23754     23750     23753     23755
     23750     23753     23756     23751     23750     23752     23751     23750     23753
     23752     23750     23753     23753     23756     23757     23753     23756     23758
     23753     23756     23759     23754     23753     23755     23754     23753     23756
     23755     23753     23756     23756     23759     23760     23756     23759     23761
     23756     23759     23762     23757     23756     23758     23757     23756     23759
     23758     23756     23759     23759     23762     23763     23759     23762     23764
     23759     23762     23765     23760     23759     23761     23760     23759     23762
     23761     23759     23762     23762     23765     23766     23762     23765     23767
     23762     23765     23768     23763     23762     23764     23763     23762     23765
     23764     23762     23765     23765     23768     23769     23765     23768     23770
     23765     23768     23771     23766     23765     23767     23766     23765     23768
     23767     23765     23768     23768     23771     23772     23768     23771     23773
     23768     23771     23774     23769     23768     23770     23769     23768     23771
     23770     23768     23771     23772     23771     23773     23772     23771     23774
     23773     23771     23774     23775     23776     23777     23775     23776     23778
     23775     23776     23791     23775     23779     23780     23775     23779     23781
     23775     23779     23782     23775     23783     23784     23775     23783     23785
     23775     23783     23786     23775     23787     23788     23775     23787     23789
     23775     23787     23790     23776     23775     23779     23776     23775     23783
     23776     23775     23787     23776     23791     23792     23776     23791     23793
     23776     23791     23797     23777     23776     23778     23777     23776     23791
     23778     23776     23791     23779     23775     23783     23779     23775     23787
     23780     23779     23781     23780     23779     23782     23781     23779     23782
     23783     23775     23787     23784     23783     23785     23784     23783     23786
     23785     23783     23786     23788     23787     23789     23788     23787     23790
     23789     23787     23790     23791     23797     23794     23792     23791     23793
     23792     23791     23797     23793     23791     23797     23794     23798     23799
     23795     23794     23796     23795     23794     23797     23795     23794     23798
     23796     23794     23797     23796     23794     23798     23797     23794     23798
     23798     23799     23800     23798     23799     23801     23798     23799     23802
     23799     23802     23803     23799     23802     23804     23799     23802     23810
     23800     23799     23801     23800     23799     23802     23801     23799     23802
     23802     23804     23805     23802     23810     23811     23802     23810     23812
     23802     23810     23813     23803     23802     23804     23803     23802     23810
     23804     23802     23810     23804     23805     23806     23804     23805     23807
     23805     23807     23808     23805     23807     23809     23805     23807     23819
     23806     23805     23807     23807     23819     23820     23807     23819     23821
     23807     23819     23822     23808     23807     23809     23808     23807     23819
     23809     23807     23819     23810     23813     23814     23811     23810     23812
     23811     23810     23813     23812     23810     23813     23813     23814     23815
     23813     23814     23816     23814     23816     23817     23814     23816     23818
     23814     23816     23866     23815     23814     23816     23816     23866     23867
     23816     23866     23868     23816     23866     23869     23817     23816     23818
     23817     23816     23866     23818     23816     23866     23819     23822     23823
     23819     23822     23824     23819     23822     23825     23820     23819     23821
     23820     23819     23822     23821     23819     23822     23822     23825     23826
     23822     23825     23827     23822     23825     23828     23823     23822     23824
     23823     23822     23825     23824     23822     23825     23825     23828     23829
     23825     23828     23830     23825     23828     23831     23826     23825     23827
     23826     23825     23828     23827     23825     23828     23828     23831     23832
     23828     23831     23833     23828     23831     23834     23829     23828     23830
     23829     23828     23831     23830     23828     23831     23831     23834     23835
     23831     23834     23836     23831     23834     23837     23832     23831     23833
     23832     23831     23834     23833     23831     23834     23834     23837     23838
     23834     23837     23839     23835     23834     23836     23835     23834     23837
     23836     23834     23837     23837     23839     23840     23837     23839     23841
     23838     23837     23839     23839     23841     23842     23839     23841     23843
     23839     23841     23844     23840     23839     23841     23841     23844     23845
     23841     23844     23846     23841     23844     23847     23842     23841     23843
     23842     23841     23844     23843     23841     23844     23844     23847     23848
     23844     23847     23849     23844     23847     23850     23845     23844     23846
     23845     23844     23847     23846     23844     23847     23847     23850     23851
     23847     23850     23852     23847     23850     23853     23848     23847     23849
     23848     23847     23850     23849     23847     23850     23850     23853     23854
     23850     23853     23855     23850     23853     23856     23851     23850     23852
     23851     23850     23853     23852     23850     23853     23853     23856     23857
     23853     23856     23858     23853     23856     23859     23854     23853     23855
     23854     23853     23856     23855     23853     23856     23856     23859     23860
     23856     23859     23861     23856     23859     23862     23857     23856     23858
     23857     23856     23859     23858     23856     23859     23859     23862     23863
     23859     23862     23864     23859     23862     23865     23860     23859     23861
     23860     23859     23862     23861     23859     23862     23863     23862     23864
     23863     23862     23865     23864     23862     23865     23866     23869     23870
     23866     23869     23871     23866     23869     23872     23867     23866     23868
     23867     23866     23869     23868     23866     23869     23869     23872     23873
     23869     23872     23874     23869     23872     23875     23870     23869     23871
     23870     23869     23872     23871     23869     23872     23872     23875     23876
     23872     23875     23877     23872     23875     23878     23873     23872     23874
     23873     23872     23875     23874     23872     23875     23875     23878     23879
     23875     23878     23880     23875     23878     23881     23876     23875     23877
     23876     23875     23878     23877     23875     23878     23878     23881     23882
     23878     23881     23883     23878     23881     23884     23879     23878     23880
     23879     23878     23881     23880     23878     23881     23881     23884     23885
     23881     23884     23886     23882     23881     23883     23882     23881     23884
     23883     23881     23884     23884     23886     23887     23884     23886     23888
     23885     23884     23886     23886     23888     23889     23886     23888     23890
     23886     23888     23891     23887     23886     23888     23888     23891     23892
     23888     23891     23893     23888     23891     23894     23889     23888     23890
     23889     23888     23891     23890     23888     23891     23891     23894     23895
     23891     23894     23896     23891     23894     23897     23892     23891     23893
     23892     23891     23894     23893     23891     23894     23894     23897     23898
     23894     23897     23899     23894     23897     23900     23895     23894     23896
     23895     23894     23897     23896     23894     23897     23897     23900     23901
     23897     23900     23902     23897     23900     23903     23898     23897     23899
     23898     23897     23900     23899     23897     23900     23900     23903     23904
     23900     23903     23905     23900     23903     23906     23901     23900     23902
     23901     23900     23903     23902     23900     23903     23903     23906     23907
     23903     23906     23908     23903     23906     23909     23904     23903     23905
     23904     23903     23906     23905     23903     23906     23906     23909     23910
     23906     23909     23911     23906     23909     23912     23907     23906     23908
     23907     23906     23909     23908     23906     23909     23910     23909     23911
     23910     23909     23912     23911     23909     23912     23913     23914     23915
     23913     23914     23916     23913     23914     23929     23913     23917     23918
     23913     23917     23919     23913     23917     23920     23913     23921     23922
     23913     23921     23923     23913     23921     23924     23913     23925     23926
     23913     23925     23927     23913     23925     23928     23914     23913     23917
     23914     23913     23921     23914     23913     23925     23914     23929     23930
     23914     23929     23931     23914     23929     23935     23915     23914     23916
     23915     23914     23929     23916     23914     23929     23917     23913     23921
     23917     23913     23925     23918     23917     23919     23918     23917     23920
     23919     23917     23920     23921     23913     23925     23922     23921     23923
     23922     23921     23924     23923     23921     23924     23926     23925     23927
     23926     23925     23928     23927     23925     23928     23929     23935     23932
     23930     23929     23931     23930     23929     23935     23931     23929     23935
     23932     23936     23937     23933     23932     23934     23933     23932     23935
     23933     23932     23936     23934     23932     23935     23934     23932     23936
     23935     23932     23936     23936     23937     23938     23936     23937     23939
     23936     23937     23940     23937     23940     23941     23937     23940     23942
     23937     23940     23948     23938     23937     23939     23938     23937     23940
     23939     23937     23940     23940     23942     23943     23940     23948     23949
     23940     23948     23950     23940     23948     23951     23941     23940     23942
     23941     23940     23948     23942     23940     23948     23942     23943     23944
     23942     23943     23945     23943     23945     23946     23943     23945     23947
     23943     23945     23957     23944     23943     23945     23945     23957     23958
     23945     23957     23959     23945     23957     23960     23946     23945     23947
     23946     23945     23957     23947     23945     23957     23948     23951     23952
     23949     23948     23950     23949     23948     23951     23950     23948     23951
     23951     23952     23953     23951     23952     23954     23952     23954     23955
     23952     23954     23956     23952     23954     24004     23953     23952     23954
     23954     24004     24005     23954     24004     24006     23954     24004     24007
     23955     23954     23956     23955     23954     24004     23956     23954     24004
     23957     23960     23961     23957     23960     23962     23957     23960     23963
     23958     23957     23959     23958     23957     23960     23959     23957     23960
     23960     23963     23964     23960     23963     23965     23960     23963     23966
     23961     23960     23962     23961     23960     23963     23962     23960     23963
     23963     23966     23967     23963     23966     23968     23963     23966     23969
     23964     23963     23965     23964     23963     23966     23965     23963     23966
     23966     23969     23970     23966     23969     23971     23966     23969     23972
     23967     23966     23968     23967     23966     23969     23968     23966     23969
     23969     23972     23973     23969     23972     23974     23969     23972     23975
     23970     23969     23971     23970     23969     23972     23971     23969     23972
     23972     23975     23976     23972     23975     23977     23973     23972     23974
     23973     23972     23975     23974     23972     23975     23975     23977     23978
     23975     23977     23979     23976     23975     23977     23977     23979     23980
     23977     23979     23981     23977     23979     23982     23978     23977     23979
     23979     23982     23983     23979     23982     23984     23979     23982     23985
     23980     23979     23981     23980     23979     23982     23981     23979     23982
     23982     23985     23986     23982     23985     23987     23982     23985     23988
     23983     23982     23984     23983     23982     23985     23984     23982     23985
     23985     23988     23989     23985     23988     23990     23985     23988     23991
     23986     23985     23987     23986     23985     23988     23987     23985     23988
     23988     23991     23992     23988     23991     23993     23988     23991     23994
     23989     23988     23990     23989     23988     23991     23990     23988     23991
     23991     23994     23995     23991     23994     23996     23991     23994     23997
     23992     23991     23993     23992     23991     23994     23993     23991     23994
     23994     23997     23998     23994     23997     23999     23994     23997     24000
     23995     23994     23996     23995     23994     23997     23996     23994     23997
     23997     24000     24001     23997     24000     24002     23997     24000     24003
     23998     23997     23999     23998     23997     24000     23999     23997     24000
     24001     24000     24002     24001     24000     24003     24002     24000     24003
     24004     24007     24008     24004     24007     24009     24004     24007     24010
     24005     24004     24006     24005     24004     24007     24006     24004     24007
     24007     24010     24011     24007     24010     24012     24007     24010     24013
     24008     24007     24009     24008     24007     24010     24009     24007     24010
     24010     24013     24014     24010     24013     24015     24010     24013     24016
     24011     24010     24012     24011     24010     24013     24012     24010     24013
     24013     24016     24017     24013     24016     24018     24013     24016     24019
     24014     24013     24015     24014     24013     24016     24015     24013     24016
     24016     24019     24020     24016     24019     24021     24016     24019     24022
     24017     24016     24018     24017     24016     24019     24018     24016     24019
     24019     24022     24023     24019     24022     24024     24020     24019     24021
     24020     24019     24022     24021     24019     24022     24022     24024     24025
     24022     24024     24026     24023     24022     24024     24024     24026     24027
     24024     24026     24028     24024     24026     24029     24025     24024     24026
     24026     24029     24030     24026     24029     24031     24026     24029     24032
     24027     24026     24028     24027     24026     24029     24028     24026     24029
     24029     24032     24033     24029     24032     24034     24029     24032     24035
     24030     24029     24031     24030     24029     24032     24031     24029     24032
     24032     24035     24036     24032     24035     24037     24032     24035     24038
     24033     24032     24034     24033     24032     24035     24034     24032     24035
     24035     24038     24039     24035     24038     24040     24035     24038     24041
     24036     24035     24037     24036     24035     24038     24037     24035     24038
     24038     24041     24042     24038     24041     24043     24038     24041     24044
     24039     24038     24040     24039     24038     24041     24040     24038     24041
     24041     24044     24045     24041     24044     24046     24041     24044     24047
     24042     24041     24043     24042     24041     24044     24043     24041     24044
     24044     24047     24048     24044     24047     24049     24044     24047     24050
     24045     24044     24046     24045     24044     24047     24046     24044     24047
     24048     24047     24049     24048     24047     24050     24049     24047     24050
     24051     24052     24053     24051     24052     24054     24051     24052     24055
     24051     24056     24057     24051     24056     24058     24051     24056     24059
     24051     24060     24061     24051     24060     24062     24051     24060     24063
     24051     24064     24065     24051     24064     24066     24051     24064     24067
     24052     24051     24056     24052     24051     24060     24052     24051     24064
     24053     24052     24054     24053     24052     24055     24054     24052     24055
     24056     24051     24060     24056     24051     24064     24057     24056     24058
     24057     24056     24059     24058     24056     24059     24060     24051     24064
     24061     24060     24062     24061     24060     24063     24062     24060     24063
     24064     24067     24068     24064     24067     24069     24064     24067     24074
     24065     24064     24066     24065     24064     24067     24066     24064     24067
     24067     24074     24070     24068     24067     24069     24068     24067     24074
     24069     24067     24074     24070     24073     24075     24071     24070     24072
     24071     24070     24073     24071     24070     24074     24072     24070     24073
     24072     24070     24074     24073     24070     24074     24073     24075     24076
     24073     24075     24077     24073     24075     24080     24075     24080     24078
     24075     24080     24081     24075     24080     24082     24076     24075     24077
     24076     24075     24080     24077     24075     24080     24078     24080     24081
     24078     24080     24082     24078     24130     24131     24078     24130     24132
     24079     24078     24080     24079     24078     24130     24080     24078     24130
     24080     24082     24083     24080     24082     24084     24080     24082     24086
     24081     24080     24082     24082     24084     24085     24082     24086     24087
     24082     24086     24088     24083     24082     24084     24083     24082     24086
     24084     24082     24086     24086     24088     24089     24086     24088     24090
     24087     24086     24088     24088     24090     24091     24088     24090     24092
     24088     24090     24093     24089     24088     24090     24090     24093     24094
     24090     24093     24095     24090     24093     24096     24091     24090     24092
     24091     24090     24093     24092     24090     24093     24093     24096     24097
     24093     24096     24098     24093     24096     24099     24094     24093     24095
     24094     24093     24096     24095     24093     24096     24096     24099     24100
     24096     24099     24101     24096     24099     24102     24097     24096     24098
     24097     24096     24099     24098     24096     24099     24099     24102     24103
     24099     24102     24104     24099     24102     24105     24100     24099     24101
     24100     24099     24102     24101     24099     24102     24102     24105     24106
     24102     24105     24107     24102     24105     24108     24103     24102     24104
     24103     24102     24105     24104     24102     24105     24105     24108     24109
     24105     24108     24110     24105     24108     24111     24106     24105     24107
     24106     24105     24108     24107     24105     24108     24108     24111     24112
     24108     24111     24113     24108     24111     24114     24109     24108     24110
     24109     24108     24111     24110     24108     24111     24111     24114     24115
     24111     24114     24116     24111     24114     24117     24112     24111     24113
     24112     24111     24114     24113     24111     24114     24114     24117     24118
     24114     24117     24119     24114     24117     24120     24115     24114     24116
     24115     24114     24117     24116     24114     24117     24117     24120     24121
     24117     24120     24122     24117     24120     24123     24118     24117     24119
     24118     24117     24120     24119     24117     24120     24120     24123     24124
     24120     24123     24125     24120     24123     24126     24121     24120     24122
     24121     24120     24123     24122     24120     24123     24123     24126     24127
     24123     24126     24128     24123     24126     24129     24124     24123     24125
     24124     24123     24126     24125     24123     24126     24127     24126     24128
     24127     24126     24129     24128     24126     24129     24130     24132     24133
     24130     24132     24134     24130     24132     24135     24131     24130     24132
     24132     24135     24136     24132     24135     24137     24132     24135     24138
     24133     24132     24134     24133     24132     24135     24134     24132     24135
     24135     24138     24139     24135     24138     24140     24135     24138     24141
     24136     24135     24137     24136     24135     24138     24137     24135     24138
     24138     24141     24142     24138     24141     24143     24138     24141     24144
     24139     24138     24140     24139     24138     24141     24140     24138     24141
     24141     24144     24145     24141     24144     24146     24141     24144     24147
     24142     24141     24143     24142     24141     24144     24143     24141     24144
     24144     24147     24148     24144     24147     24149     24144     24147     24150
     24145     24144     24146     24145     24144     24147     24146     24144     24147
     24147     24150     24151     24147     24150     24152     24147     24150     24153
     24148     24147     24149     24148     24147     24150     24149     24147     24150
     24150     24153     24154     24150     24153     24155     24150     24153     24156
     24151     24150     24152     24151     24150     24153     24152     24150     24153
     24153     24156     24157     24153     24156     24158     24153     24156     24159
     24154     24153     24155     24154     24153     24156     24155     24153     24156
     24156     24159     24160     24156     24159     24161     24156     24159     24162
     24157     24156     24158     24157     24156     24159     24158     24156     24159
     24159     24162     24163     24159     24162     24164     24159     24162     24165
     24160     24159     24161     24160     24159     24162     24161     24159     24162
     24162     24165     24166     24162     24165     24167     24162     24165     24168
     24163     24162     24164     24163     24162     24165     24164     24162     24165
     24165     24168     24169     24165     24168     24170     24165     24168     24171
     24166     24165     24167     24166     24165     24168     24167     24165     24168
     24168     24171     24172     24168     24171     24173     24168     24171     24174
     24169     24168     24170     24169     24168     24171     24170     24168     24171
     24171     24174     24175     24171     24174     24176     24171     24174     24177
     24172     24171     24173     24172     24171     24174     24173     24171     24174
     24174     24177     24178     24174     24177     24179     24174     24177     24180
     24175     24174     24176     24175     24174     24177     24176     24174     24177
     24177     24180     24181     24177     24180     24182     24177     24180     24183
     24178     24177     24179     24178     24177     24180     24179     24177     24180
     24180     24183     24184     24180     24183     24185     24180     24183     24186
     24181     24180     24182     24181     24180     24183     24182     24180     24183
     24183     24186     24187     24183     24186     24188     24183     24186     24189
     24184     24183     24185     24184     24183     24186     24185     24183     24186
     24186     24189     24190     24186     24189     24191     24186     24189     24192
     24187     24186     24188     24187     24186     24189     24188     24186     24189
     24189     24192     24193     24189     24192     24194     24189     24192     24195
     24190     24189     24191     24190     24189     24192     24191     24189     24192
     24192     24195     24196     24192     24195     24197     24192     24195     24198
     24193     24192     24194     24193     24192     24195     24194     24192     24195
     24196     24195     24197     24196     24195     24198     24197     24195     24198
     24199     24201     24202     24199     24203     24204     24199     24203     24205
     24199     24203     24206     24199     24245     24242     24199     24245     24246
     24199     24245     24247     24200     24199     24201     24200     24199     24203
     24200     24199     24245     24201     24199     24203     24201     24199     24245
     24203     24199     24245     24203     24206     24207     24203     24206     24237
     24204     24203     24205     24204     24203     24206     24205     24203     24206
     24206     24207     24208     24206     24207     24209     24206     24237     24235
     24206     24237     24238     24206     24237     24242     24207     24206     24237
     24207     24209     24210     24207     24209     24211     24207     24209     24212
     24208     24207     24209     24209     24212     24213     24209     24212     24214
     24209     24212     24235     24210     24209     24211     24210     24209     24212
     24211     24209     24212     24212     24214     24215     24212     24214     24216
     24212     24214     24224     24212     24235     24232     24212     24235     24236
     24212     24235     24237     24213     24212     24214     24213     24212     24235
     24214     24212     24235     24214     24216     24217     24214     24216     24218
     24214     24216     24219     24214     24224     24222     24214     24224     24225
     24214     24224     24229     24215     24214     24216     24215     24214     24224
     24216     24214     24224     24216     24219     24220     24216     24219     24221
     24216     24219     24222     24217     24216     24218     24217     24216     24219
     24218     24216     24219     24219     24222     24223     24219     24222     24224
     24219     24222     24248     24220     24219     24221     24220     24219     24222
     24221     24219     24222     24222     24224     24225     24222     24224     24229
     24222     24248     24249     24222     24248     24250     24222     24248     24254
     24223     24222     24224     24223     24222     24248     24224     24222     24248
     24224     24225     24226     24224     24225     24227     24224     24225     24228
     24224     24229     24230     24224     24229     24231     24224     24229     24232
     24225     24224     24229     24226     24225     24227     24226     24225     24228
     24227     24225     24228     24229     24232     24233     24229     24232     24234
     24229     24232     24235     24230     24229     24231     24230     24229     24232
     24231     24229     24232     24232     24235     24236     24232     24235     24237
     24233     24232     24234     24233     24232     24235     24234     24232     24235
     24235     24237     24238     24235     24237     24242     24236     24235     24237
     24237     24238     24239     24237     24238     24240     24237     24238     24241
     24237     24242     24243     24237     24242     24244     24237     24242     24245
     24238     24237     24242     24239     24238     24240     24239     24238     24241
     24240     24238     24241     24242     24245     24246     24242     24245     24247
     24243     24242     24244     24243     24242     24245     24244     24242     24245
     24246     24245     24247     24248     24250     24251     24248     24250     24252
     24248     24250     24253     24248     24254     24255     24248     24254     24256
     24248     24254     24257     24249     24248     24250     24249     24248     24254
     24250     24248     24254     24251     24250     24252     24251     24250     24253
     24252     24250     24253     24254     24257     24258     24254     24257     24259
     24254     24257     24260     24255     24254     24256     24255     24254     24257
     24256     24254     24257     24257     24260     24261     24257     24260     24262
     24257     24260     24263     24258     24257     24259     24258     24257     24260
     24259     24257     24260     24260     24263     24264     24260     24263     24265
     24260     24263     24269     24261     24260     24262     24261     24260     24263
     24262     24260     24263     24263     24265     24266     24263     24265     24267
     24263     24265     24268     24263     24269     24270     24263     24269     24271
     24263     24269     24272     24264     24263     24265     24264     24263     24269
     24265     24263     24269     24266     24265     24267     24266     24265     24268
     24267     24265     24268     24270     24269     24271     24270     24269     24272
     24271     24269     24272     24273     24277     24278     24273     24277     24279
     24273     24277     24280     24274     24273     24275     24274     24273     24276
     24274     24273     24277     24275     24273     24276     24275     24273     24277
     24276     24273     24277     24277     24280     24281     24277     24280     24282
     24277     24280     24287     24278     24277     24279     24278     24277     24280
     24279     24277     24280     24280     24287     24283     24281     24280     24282
     24281     24280     24287     24282     24280     24287     24283     24286     24288
     24284     24283     24285     24284     24283     24286     24284     24283     24287
     24285     24283     24286     24285     24283     24287     24286     24283     24287
     24286     24288     24289     24286     24288     24290     24286     24288     24291
     24288     24291     24292     24288     24291     24293     24288     24291     24299
     24289     24288     24290     24289     24288     24291     24290     24288     24291
     24291     24293     24294     24291     24299     24300     24291     24299     24301
     24291     24299     24302     24292     24291     24293     24292     24291     24299
     24293     24291     24299     24293     24294     24295     24293     24294     24296
     24294     24296     24297     24294     24296     24298     24294     24296     24308
     24295     24294     24296     24296     24308     24309     24296     24308     24310
     24296     24308     24311     24297     24296     24298     24297     24296     24308
     24298     24296     24308     24299     24302     24303     24300     24299     24301
     24300     24299     24302     24301     24299     24302     24302     24303     24304
     24302     24303     24305     24303     24305     24306     24303     24305     24307
     24303     24305     24355     24304     24303     24305     24305     24355     24356
     24305     24355     24357     24305     24355     24358     24306     24305     24307
     24306     24305     24355     24307     24305     24355     24308     24311     24312
     24308     24311     24313     24308     24311     24314     24309     24308     24310
     24309     24308     24311     24310     24308     24311     24311     24314     24315
     24311     24314     24316     24311     24314     24317     24312     24311     24313
     24312     24311     24314     24313     24311     24314     24314     24317     24318
     24314     24317     24319     24314     24317     24320     24315     24314     24316
     24315     24314     24317     24316     24314     24317     24317     24320     24321
     24317     24320     24322     24317     24320     24323     24318     24317     24319
     24318     24317     24320     24319     24317     24320     24320     24323     24324
     24320     24323     24325     24320     24323     24326     24321     24320     24322
     24321     24320     24323     24322     24320     24323     24323     24326     24327
     24323     24326     24328     24324     24323     24325     24324     24323     24326
     24325     24323     24326     24326     24328     24329     24326     24328     24330
     24327     24326     24328     24328     24330     24331     24328     24330     24332
     24328     24330     24333     24329     24328     24330     24330     24333     24334
     24330     24333     24335     24330     24333     24336     24331     24330     24332
     24331     24330     24333     24332     24330     24333     24333     24336     24337
     24333     24336     24338     24333     24336     24339     24334     24333     24335
     24334     24333     24336     24335     24333     24336     24336     24339     24340
     24336     24339     24341     24336     24339     24342     24337     24336     24338
     24337     24336     24339     24338     24336     24339     24339     24342     24343
     24339     24342     24344     24339     24342     24345     24340     24339     24341
     24340     24339     24342     24341     24339     24342     24342     24345     24346
     24342     24345     24347     24342     24345     24348     24343     24342     24344
     24343     24342     24345     24344     24342     24345     24345     24348     24349
     24345     24348     24350     24345     24348     24351     24346     24345     24347
     24346     24345     24348     24347     24345     24348     24348     24351     24352
     24348     24351     24353     24348     24351     24354     24349     24348     24350
     24349     24348     24351     24350     24348     24351     24352     24351     24353
     24352     24351     24354     24353     24351     24354     24355     24358     24359
     24355     24358     24360     24355     24358     24361     24356     24355     24357
     24356     24355     24358     24357     24355     24358     24358     24361     24362
     24358     24361     24363     24358     24361     24364     24359     24358     24360
     24359     24358     24361     24360     24358     24361     24361     24364     24365
     24361     24364     24366     24361     24364     24367     24362     24361     24363
     24362     24361     24364     24363     24361     24364     24364     24367     24368
     24364     24367     24369     24364     24367     24370     24365     24364     24366
     24365     24364     24367     24366     24364     24367     24367     24370     24371
     24367     24370     24372     24367     24370     24373     24368     24367     24369
     24368     24367     24370     24369     24367     24370     24370     24373     24374
     24370     24373     24375     24371     24370     24372     24371     24370     24373
     24372     24370     24373     24373     24375     24376     24373     24375     24377
     24374     24373     24375     24375     24377     24378     24375     24377     24379
     24375     24377     24380     24376     24375     24377     24377     24380     24381
     24377     24380     24382     24377     24380     24383     24378     24377     24379
     24378     24377     24380     24379     24377     24380     24380     24383     24384
     24380     24383     24385     24380     24383     24386     24381     24380     24382
     24381     24380     24383     24382     24380     24383     24383     24386     24387
     24383     24386     24388     24383     24386     24389     24384     24383     24385
     24384     24383     24386     24385     24383     24386     24386     24389     24390
     24386     24389     24391     24386     24389     24392     24387     24386     24388
     24387     24386     24389     24388     24386     24389     24389     24392     24393
     24389     24392     24394     24389     24392     24395     24390     24389     24391
     24390     24389     24392     24391     24389     24392     24392     24395     24396
     24392     24395     24397     24392     24395     24398     24393     24392     24394
     24393     24392     24395     24394     24392     24395     24395     24398     24399
     24395     24398     24400     24395     24398     24401     24396     24395     24397
     24396     24395     24398     24397     24395     24398     24399     24398     24400
     24399     24398     24401     24400     24398     24401     24402     24403     24404
     24402     24403     24405     24402     24403     24406     24402     24407     24408
     24402     24407     24409     24402     24407     24410     24402     24411     24412
     24402     24411     24413     24402     24411     24414     24402     24415     24416
     24402     24415     24417     24402     24415     24418     24403     24402     24407
     24403     24402     24411     24403     24402     24415     24404     24403     24405
     24404     24403     24406     24405     24403     24406     24407     24402     24411
     24407     24402     24415     24408     24407     24409     24408     24407     24410
     24409     24407     24410     24411     24402     24415     24412     24411     24413
     24412     24411     24414     24413     24411     24414     24415     24418     24419
     24415     24418     24420     24415     24418     24425     24416     24415     24417
     24416     24415     24418     24417     24415     24418     24418     24425     24421
     24419     24418     24420     24419     24418     24425     24420     24418     24425
     24421     24424     24426     24422     24421     24423     24422     24421     24424
     24422     24421     24425     24423     24421     24424     24423     24421     24425
     24424     24421     24425     24424     24426     24427     24424     24426     24428
     24424     24426     24431     24426     24431     24429     24426     24431     24432
     24426     24431     24433     24427     24426     24428     24427     24426     24431
     24428     24426     24431     24429     24431     24432     24429     24431     24433
     24429     24481     24482     24429     24481     24483     24430     24429     24431
     24430     24429     24481     24431     24429     24481     24431     24433     24434
     24431     24433     24435     24431     24433     24437     24432     24431     24433
     24433     24435     24436     24433     24437     24438     24433     24437     24439
     24434     24433     24435     24434     24433     24437     24435     24433     24437
     24437     24439     24440     24437     24439     24441     24438     24437     24439
     24439     24441     24442     24439     24441     24443     24439     24441     24444
     24440     24439     24441     24441     24444     24445     24441     24444     24446
     24441     24444     24447     24442     24441     24443     24442     24441     24444
     24443     24441     24444     24444     24447     24448     24444     24447     24449
     24444     24447     24450     24445     24444     24446     24445     24444     24447
     24446     24444     24447     24447     24450     24451     24447     24450     24452
     24447     24450     24453     24448     24447     24449     24448     24447     24450
     24449     24447     24450     24450     24453     24454     24450     24453     24455
     24450     24453     24456     24451     24450     24452     24451     24450     24453
     24452     24450     24453     24453     24456     24457     24453     24456     24458
     24453     24456     24459     24454     24453     24455     24454     24453     24456
     24455     24453     24456     24456     24459     24460     24456     24459     24461
     24456     24459     24462     24457     24456     24458     24457     24456     24459
     24458     24456     24459     24459     24462     24463     24459     24462     24464
     24459     24462     24465     24460     24459     24461     24460     24459     24462
     24461     24459     24462     24462     24465     24466     24462     24465     24467
     24462     24465     24468     24463     24462     24464     24463     24462     24465
     24464     24462     24465     24465     24468     24469     24465     24468     24470
     24465     24468     24471     24466     24465     24467     24466     24465     24468
     24467     24465     24468     24468     24471     24472     24468     24471     24473
     24468     24471     24474     24469     24468     24470     24469     24468     24471
     24470     24468     24471     24471     24474     24475     24471     24474     24476
     24471     24474     24477     24472     24471     24473     24472     24471     24474
     24473     24471     24474     24474     24477     24478     24474     24477     24479
     24474     24477     24480     24475     24474     24476     24475     24474     24477
     24476     24474     24477     24478     24477     24479     24478     24477     24480
     24479     24477     24480     24481     24483     24484     24481     24483     24485
     24481     24483     24486     24482     24481     24483     24483     24486     24487
     24483     24486     24488     24483     24486     24489     24484     24483     24485
     24484     24483     24486     24485     24483     24486     24486     24489     24490
     24486     24489     24491     24486     24489     24492     24487     24486     24488
     24487     24486     24489     24488     24486     24489     24489     24492     24493
     24489     24492     24494     24489     24492     24495     24490     24489     24491
     24490     24489     24492     24491     24489     24492     24492     24495     24496
     24492     24495     24497     24492     24495     24498     24493     24492     24494
     24493     24492     24495     24494     24492     24495     24495     24498     24499
     24495     24498     24500     24495     24498     24501     24496     24495     24497
     24496     24495     24498     24497     24495     24498     24498     24501     24502
     24498     24501     24503     24498     24501     24504     24499     24498     24500
     24499     24498     24501     24500     24498     24501     24501     24504     24505
     24501     24504     24506     24501     24504     24507     24502     24501     24503
     24502     24501     24504     24503     24501     24504     24504     24507     24508
     24504     24507     24509     24504     24507     24510     24505     24504     24506
     24505     24504     24507     24506     24504     24507     24507     24510     24511
     24507     24510     24512     24507     24510     24513     24508     24507     24509
     24508     24507     24510     24509     24507     24510     24510     24513     24514
     24510     24513     24515     24510     24513     24516     24511     24510     24512
     24511     24510     24513     24512     24510     24513     24513     24516     24517
     24513     24516     24518     24513     24516     24519     24514     24513     24515
     24514     24513     24516     24515     24513     24516     24516     24519     24520
     24516     24519     24521     24516     24519     24522     24517     24516     24518
     24517     24516     24519     24518     24516     24519     24519     24522     24523
     24519     24522     24524     24519     24522     24525     24520     24519     24521
     24520     24519     24522     24521     24519     24522     24522     24525     24526
     24522     24525     24527     24522     24525     24528     24523     24522     24524
     24523     24522     24525     24524     24522     24525     24525     24528     24529
     24525     24528     24530     24525     24528     24531     24526     24525     24527
     24526     24525     24528     24527     24525     24528     24528     24531     24532
     24528     24531     24533     24528     24531     24534     24529     24528     24530
     24529     24528     24531     24530     24528     24531     24531     24534     24535
     24531     24534     24536     24531     24534     24537     24532     24531     24533
     24532     24531     24534     24533     24531     24534     24534     24537     24538
     24534     24537     24539     24534     24537     24540     24535     24534     24536
     24535     24534     24537     24536     24534     24537     24537     24540     24541
     24537     24540     24542     24537     24540     24543     24538     24537     24539
     24538     24537     24540     24539     24537     24540     24540     24543     24544
     24540     24543     24545     24540     24543     24546     24541     24540     24542
     24541     24540     24543     24542     24540     24543     24543     24546     24547
     24543     24546     24548     24543     24546     24549     24544     24543     24545
     24544     24543     24546     24545     24543     24546     24547     24546     24548
     24547     24546     24549     24548     24546     24549     24550     24552     24553
     24550     24554     24555     24550     24554     24556     24550     24554     24557
     24550     24596     24593     24550     24596     24597     24550     24596     24598
     24551     24550     24552     24551     24550     24554     24551     24550     24596
     24552     24550     24554     24552     24550     24596     24554     24550     24596
     24554     24557     24558     24554     24557     24588     24555     24554     24556
     24555     24554     24557     24556     24554     24557     24557     24558     24559
     24557     24558     24560     24557     24588     24586     24557     24588     24589
     24557     24588     24593     24558     24557     24588     24558     24560     24561
     24558     24560     24562     24558     24560     24563     24559     24558     24560
     24560     24563     24564     24560     24563     24565     24560     24563     24586
     24561     24560     24562     24561     24560     24563     24562     24560     24563
     24563     24565     24566     24563     24565     24567     24563     24565     24575
     24563     24586     24583     24563     24586     24587     24563     24586     24588
     24564     24563     24565     24564     24563     24586     24565     24563     24586
     24565     24567     24568     24565     24567     24569     24565     24567     24570
     24565     24575     24573     24565     24575     24576     24565     24575     24580
     24566     24565     24567     24566     24565     24575     24567     24565     24575
     24567     24570     24571     24567     24570     24572     24567     24570     24573
     24568     24567     24569     24568     24567     24570     24569     24567     24570
     24570     24573     24574     24570     24573     24575     24570     24573     24599
     24571     24570     24572     24571     24570     24573     24572     24570     24573
     24573     24575     24576     24573     24575     24580     24573     24599     24600
     24573     24599     24601     24573     24599     24605     24574     24573     24575
     24574     24573     24599     24575     24573     24599     24575     24576     24577
     24575     24576     24578     24575     24576     24579     24575     24580     24581
     24575     24580     24582     24575     24580     24583     24576     24575     24580
     24577     24576     24578     24577     24576     24579     24578     24576     24579
     24580     24583     24584     24580     24583     24585     24580     24583     24586
     24581     24580     24582     24581     24580     24583     24582     24580     24583
     24583     24586     24587     24583     24586     24588     24584     24583     24585
     24584     24583     24586     24585     24583     24586     24586     24588     24589
     24586     24588     24593     24587     24586     24588     24588     24589     24590
     24588     24589     24591     24588     24589     24592     24588     24593     24594
     24588     24593     24595     24588     24593     24596     24589     24588     24593
     24590     24589     24591     24590     24589     24592     24591     24589     24592
     24593     24596     24597     24593     24596     24598     24594     24593     24595
     24594     24593     24596     24595     24593     24596     24597     24596     24598
     24599     24601     24602     24599     24601     24603     24599     24601     24604
     24599     24605     24606     24599     24605     24607     24599     24605     24608
     24600     24599     24601     24600     24599     24605     24601     24599     24605
     24602     24601     24603     24602     24601     24604     24603     24601     24604
     24605     24608     24609     24605     24608     24610     24605     24608     24611
     24606     24605     24607     24606     24605     24608     24607     24605     24608
     24608     24611     24612     24608     24611     24613     24608     24611     24614
     24609     24608     24610     24609     24608     24611     24610     24608     24611
     24611     24614     24615     24611     24614     24616     24611     24614     24620
     24612     24611     24613     24612     24611     24614     24613     24611     24614
     24614     24616     24617     24614     24616     24618     24614     24616     24619
     24614     24620     24621     24614     24620     24622     24614     24620     24623
     24615     24614     24616     24615     24614     24620     24616     24614     24620
     24617     24616     24618     24617     24616     24619     24618     24616     24619
     24621     24620     24622     24621     24620     24623     24622     24620     24623
     24624     24625     24626     24624     24625     24627     24624     24625     24628
     24624     24629     24630     24624     24629     24631     24624     24629     24632
     24624     24633     24634     24624     24633     24635     24624     24633     24636
     24624     24637     24638     24624     24637     24639     24624     24637     24640
     24625     24624     24629     24625     24624     24633     24625     24624     24637
     24626     24625     24627     24626     24625     24628     24627     24625     24628
     24629     24624     24633     24629     24624     24637     24630     24629     24631
     24630     24629     24632     24631     24629     24632     24633     24624     24637
     24634     24633     24635     24634     24633     24636     24635     24633     24636
     24637     24640     24641     24637     24640     24642     24637     24640     24647
     24638     24637     24639     24638     24637     24640     24639     24637     24640
     24640     24647     24643     24641     24640     24642     24641     24640     24647
     24642     24640     24647     24643     24646     24648     24644     24643     24645
     24644     24643     24646     24644     24643     24647     24645     24643     24646
     24645     24643     24647     24646     24643     24647     24646     24648     24649
     24646     24648     24650     24646     24648     24653     24648     24653     24651
     24648     24653     24654     24648     24653     24655     24649     24648     24650
     24649     24648     24653     24650     24648     24653     24651     24653     24654
     24651     24653     24655     24651     24703     24704     24651     24703     24705
     24652     24651     24653     24652     24651     24703     24653     24651     24703
     24653     24655     24656     24653     24655     24657     24653     24655     24659
     24654     24653     24655     24655     24657     24658     24655     24659     24660
     24655     24659     24661     24656     24655     24657     24656     24655     24659
     24657     24655     24659     24659     24661     24662     24659     24661     24663
     24660     24659     24661     24661     24663     24664     24661     24663     24665
     24661     24663     24666     24662     24661     24663     24663     24666     24667
     24663     24666     24668     24663     24666     24669     24664     24663     24665
     24664     24663     24666     24665     24663     24666     24666     24669     24670
     24666     24669     24671     24666     24669     24672     24667     24666     24668
     24667     24666     24669     24668     24666     24669     24669     24672     24673
     24669     24672     24674     24669     24672     24675     24670     24669     24671
     24670     24669     24672     24671     24669     24672     24672     24675     24676
     24672     24675     24677     24672     24675     24678     24673     24672     24674
     24673     24672     24675     24674     24672     24675     24675     24678     24679
     24675     24678     24680     24675     24678     24681     24676     24675     24677
     24676     24675     24678     24677     24675     24678     24678     24681     24682
     24678     24681     24683     24678     24681     24684     24679     24678     24680
     24679     24678     24681     24680     24678     24681     24681     24684     24685
     24681     24684     24686     24681     24684     24687     24682     24681     24683
     24682     24681     24684     24683     24681     24684     24684     24687     24688
     24684     24687     24689     24684     24687     24690     24685     24684     24686
     24685     24684     24687     24686     24684     24687     24687     24690     24691
     24687     24690     24692     24687     24690     24693     24688     24687     24689
     24688     24687     24690     24689     24687     24690     24690     24693     24694
     24690     24693     24695     24690     24693     24696     24691     24690     24692
     24691     24690     24693     24692     24690     24693     24693     24696     24697
     24693     24696     24698     24693     24696     24699     24694     24693     24695
     24694     24693     24696     24695     24693     24696     24696     24699     24700
     24696     24699     24701     24696     24699     24702     24697     24696     24698
     24697     24696     24699     24698     24696     24699     24700     24699     24701
     24700     24699     24702     24701     24699     24702     24703     24705     24706
     24703     24705     24707     24703     24705     24708     24704     24703     24705
     24705     24708     24709     24705     24708     24710     24705     24708     24711
     24706     24705     24707     24706     24705     24708     24707     24705     24708
     24708     24711     24712     24708     24711     24713     24708     24711     24714
     24709     24708     24710     24709     24708     24711     24710     24708     24711
     24711     24714     24715     24711     24714     24716     24711     24714     24717
     24712     24711     24713     24712     24711     24714     24713     24711     24714
     24714     24717     24718     24714     24717     24719     24714     24717     24720
     24715     24714     24716     24715     24714     24717     24716     24714     24717
     24717     24720     24721     24717     24720     24722     24717     24720     24723
     24718     24717     24719     24718     24717     24720     24719     24717     24720
     24720     24723     24724     24720     24723     24725     24720     24723     24726
     24721     24720     24722     24721     24720     24723     24722     24720     24723
     24723     24726     24727     24723     24726     24728     24723     24726     24729
     24724     24723     24725     24724     24723     24726     24725     24723     24726
     24726     24729     24730     24726     24729     24731     24726     24729     24732
     24727     24726     24728     24727     24726     24729     24728     24726     24729
     24729     24732     24733     24729     24732     24734     24729     24732     24735
     24730     24729     24731     24730     24729     24732     24731     24729     24732
     24732     24735     24736     24732     24735     24737     24732     24735     24738
     24733     24732     24734     24733     24732     24735     24734     24732     24735
     24735     24738     24739     24735     24738     24740     24735     24738     24741
     24736     24735     24737     24736     24735     24738     24737     24735     24738
     24738     24741     24742     24738     24741     24743     24738     24741     24744
     24739     24738     24740     24739     24738     24741     24740     24738     24741
     24741     24744     24745     24741     24744     24746     24741     24744     24747
     24742     24741     24743     24742     24741     24744     24743     24741     24744
     24744     24747     24748     24744     24747     24749     24744     24747     24750
     24745     24744     24746     24745     24744     24747     24746     24744     24747
     24747     24750     24751     24747     24750     24752     24747     24750     24753
     24748     24747     24749     24748     24747     24750     24749     24747     24750
     24750     24753     24754     24750     24753     24755     24750     24753     24756
     24751     24750     24752     24751     24750     24753     24752     24750     24753
     24753     24756     24757     24753     24756     24758     24753     24756     24759
     24754     24753     24755     24754     24753     24756     24755     24753     24756
     24756     24759     24760     24756     24759     24761     24756     24759     24762
     24757     24756     24758     24757     24756     24759     24758     24756     24759
     24759     24762     24763     24759     24762     24764     24759     24762     24765
     24760     24759     24761     24760     24759     24762     24761     24759     24762
     24762     24765     24766     24762     24765     24767     24762     24765     24768
     24763     24762     24764     24763     24762     24765     24764     24762     24765
     24765     24768     24769     24765     24768     24770     24765     24768     24771
     24766     24765     24767     24766     24765     24768     24767     24765     24768
     24769     24768     24770     24769     24768     24771     24770     24768     24771
     24772     24776     24777     24772     24776     24778     24772     24776     24779
     24773     24772     24774     24773     24772     24775     24773     24772     24776
     24774     24772     24775     24774     24772     24776     24775     24772     24776
     24776     24779     24780     24776     24779     24781     24776     24779     24786
     24777     24776     24778     24777     24776     24779     24778     24776     24779
     24779     24786     24782     24780     24779     24781     24780     24779     24786
     24781     24779     24786     24782     24785     24787     24783     24782     24784
     24783     24782     24785     24783     24782     24786     24784     24782     24785
     24784     24782     24786     24785     24782     24786     24785     24787     24788
     24785     24787     24789     24785     24787     24790     24787     24790     24791
     24787     24790     24792     24787     24790     24798     24788     24787     24789
     24788     24787     24790     24789     24787     24790     24790     24792     24793
     24790     24798     24799     24790     24798     24800     24790     24798     24801
     24791     24790     24792     24791     24790     24798     24792     24790     24798
     24792     24793     24794     24792     24793     24795     24793     24795     24796
     24793     24795     24797     24793     24795     24807     24794     24793     24795
     24795     24807     24808     24795     24807     24809     24795     24807     24810
     24796     24795     24797     24796     24795     24807     24797     24795     24807
     24798     24801     24802     24799     24798     24800     24799     24798     24801
     24800     24798     24801     24801     24802     24803     24801     24802     24804
     24802     24804     24805     24802     24804     24806     24802     24804     24854
     24803     24802     24804     24804     24854     24855     24804     24854     24856
     24804     24854     24857     24805     24804     24806     24805     24804     24854
     24806     24804     24854     24807     24810     24811     24807     24810     24812
     24807     24810     24813     24808     24807     24809     24808     24807     24810
     24809     24807     24810     24810     24813     24814     24810     24813     24815
     24810     24813     24816     24811     24810     24812     24811     24810     24813
     24812     24810     24813     24813     24816     24817     24813     24816     24818
     24813     24816     24819     24814     24813     24815     24814     24813     24816
     24815     24813     24816     24816     24819     24820     24816     24819     24821
     24816     24819     24822     24817     24816     24818     24817     24816     24819
     24818     24816     24819     24819     24822     24823     24819     24822     24824
     24819     24822     24825     24820     24819     24821     24820     24819     24822
     24821     24819     24822     24822     24825     24826     24822     24825     24827
     24823     24822     24824     24823     24822     24825     24824     24822     24825
     24825     24827     24828     24825     24827     24829     24826     24825     24827
     24827     24829     24830     24827     24829     24831     24827     24829     24832
     24828     24827     24829     24829     24832     24833     24829     24832     24834
     24829     24832     24835     24830     24829     24831     24830     24829     24832
     24831     24829     24832     24832     24835     24836     24832     24835     24837
     24832     24835     24838     24833     24832     24834     24833     24832     24835
     24834     24832     24835     24835     24838     24839     24835     24838     24840
     24835     24838     24841     24836     24835     24837     24836     24835     24838
     24837     24835     24838     24838     24841     24842     24838     24841     24843
     24838     24841     24844     24839     24838     24840     24839     24838     24841
     24840     24838     24841     24841     24844     24845     24841     24844     24846
     24841     24844     24847     24842     24841     24843     24842     24841     24844
     24843     24841     24844     24844     24847     24848     24844     24847     24849
     24844     24847     24850     24845     24844     24846     24845     24844     24847
     24846     24844     24847     24847     24850     24851     24847     24850     24852
     24847     24850     24853     24848     24847     24849     24848     24847     24850
     24849     24847     24850     24851     24850     24852     24851     24850     24853
     24852     24850     24853     24854     24857     24858     24854     24857     24859
     24854     24857     24860     24855     24854     24856     24855     24854     24857
     24856     24854     24857     24857     24860     24861     24857     24860     24862
     24857     24860     24863     24858     24857     24859     24858     24857     24860
     24859     24857     24860     24860     24863     24864     24860     24863     24865
     24860     24863     24866     24861     24860     24862     24861     24860     24863
     24862     24860     24863     24863     24866     24867     24863     24866     24868
     24863     24866     24869     24864     24863     24865     24864     24863     24866
     24865     24863     24866     24866     24869     24870     24866     24869     24871
     24866     24869     24872     24867     24866     24868     24867     24866     24869
     24868     24866     24869     24869     24872     24873     24869     24872     24874
     24870     24869     24871     24870     24869     24872     24871     24869     24872
     24872     24874     24875     24872     24874     24876     24873     24872     24874
     24874     24876     24877     24874     24876     24878     24874     24876     24879
     24875     24874     24876     24876     24879     24880     24876     24879     24881
     24876     24879     24882     24877     24876     24878     24877     24876     24879
     24878     24876     24879     24879     24882     24883     24879     24882     24884
     24879     24882     24885     24880     24879     24881     24880     24879     24882
     24881     24879     24882     24882     24885     24886     24882     24885     24887
     24882     24885     24888     24883     24882     24884     24883     24882     24885
     24884     24882     24885     24885     24888     24889     24885     24888     24890
     24885     24888     24891     24886     24885     24887     24886     24885     24888
     24887     24885     24888     24888     24891     24892     24888     24891     24893
     24888     24891     24894     24889     24888     24890     24889     24888     24891
     24890     24888     24891     24891     24894     24895     24891     24894     24896
     24891     24894     24897     24892     24891     24893     24892     24891     24894
     24893     24891     24894     24894     24897     24898     24894     24897     24899
     24894     24897     24900     24895     24894     24896     24895     24894     24897
     24896     24894     24897     24898     24897     24899     24898     24897     24900
     24899     24897     24900

     68580 !NPHI: dihedrals
         1         5         8         9         1         5         8        10
         1         5         8        15         2         1         5         6
         2         1         5         7         2         1         5         8
         3         1         5         6         3         1         5         7
         3         1         5         8         4         1         5         6
         4         1         5         7         4         1         5         8
         5         8        15        11         6         5         8         9
         6         5         8        10         6         5         8        15
         7         5         8         9         7         5         8        10
         7         5         8        15         8        15        11        12
         8        15        11        13         8        15        11        14
         9         8        15        11        10         8        15        11
        11        14        16        17        11        14        16        18
        11        14        16        19        12        11        14        16
        13        11        14        16        14        16        19        20
        14        16        19        21        14        16        19        27
        15        11        14        16        16        19        21        22
        16        19        27        28        16        19        27        29
        16        19        27        30        17        16        19        20
        17        16        19        21        17        16        19        27
        18        16        19        20        18        16        19        21
        18        16        19        27        19        21        22        23
        19        21        22        24        19        27        30        31
        20        19        21        22        20        19        27        28
        20        19        27        29        20        19        27        30
        21        19        27        28        21        19        27        29
        21        19        27        30        21        22        24        25
        21        22        24        26        21        22        24        36
        22        21        19        27        22        24        36        37
        22        24        36        38        22        24        36        39
        23        22        24        25        23        22        24        26
        23        22        24        36        24        36        39        40
        24        36        39        41        24        36        39        42
        25        24        36        37        25        24        36        38
        25        24        36        39        26        24        36        37
        26        24        36        38        26        24        36        39
        27        30        31        32        27        30        31        33
        28        27        30        31        29        27        30        31
        30        31        33        34        30        31        33        35
        30        31        33        83        31        33        83        84
        31        33        83        85        31        33        83        86
        32        31        33        34        32        31        33        35
        32        31        33        83        33        83        86        87
        33        83        86        88        33        83        86        89
        34        33        83        84        34        33        83        85
        34        33        83        86        35        33        83        84
        35        33        83        85        35        33        83        86
        36        39        42        43        36        39        42        44
        36        39        42        45        37        36        39        40
        37        36        39        41        37        36        39        42
        38        36        39        40        38        36        39        41
        38        36        39        42        39        42        45        46
        39        42        45        47        39        42        45        48
        40        39        42        43        40        39        42        44
        40        39        42        45        41        39        42        43
        41        39        42        44        41        39        42        45
        42        45        48        49        42        45        48        50
        42        45        48        51        43        42        45        46
        43        42        45        47        43        42        45        48
        44        42        45        46        44        42        45        47
        44        42        45        48        45        48        51        52
        45        48        51        53        45        48        51        54
        46        45        48        49        46        45        48        50
        46        45        48        51        47        45        48        49
        47        45        48        50        47        45        48        51
        48        51        54        55        48        51        54        56
        49        48        51        52        49        48        51        53
        49        48        51        54        50        48        51        52
        50        48        51        53        50        48        51        54
        51        54        56        57        51        54        56        58
        52        51        54        55        52        51        54        56
        53        51        54        55        53        51        54        56
        54        56        58        59        54        56        58        60
        54        56        58        61        55        54        56        57
        55        54        56        58        56        58        61        62
        56        58        61        63        56        58        61        64
        57        56        58        59        57        56        58        60
        57        56        58        61        58        61        64        65
        58        61        64        66        58        61        64        67
        59        58        61        62        59        58        61        63
        59        58        61        64        60        58        61        62
        60        58        61        63        60        58        61        64
        61        64        67        68        61        64        67        69
        61        64        67        70        62        61        64        65
        62        61        64        66        62        61        64        67
        63        61        64        65        63        61        64        66
        63        61        64        67        64        67        70        71
        64        67        70        72        64        67        70        73
        65        64        67        68        65        64        67        69
        65        64        67        70        66        64        67        68
        66        64        67        69        66        64        67        70
        67        70        73        74        67        70        73        75
        67        70        73        76        68        67        70        71
        68        67        70        72        68        67        70        73
        69        67        70        71        69        67        70        72
        69        67        70        73        70        73        76        77
        70        73        76        78        70        73        76        79
        71        70        73        74        71        70        73        75
        71        70        73        76        72        70        73        74
        72        70        73        75        72        70        73        76
        73        76        79        80        73        76        79        81
        73        76        79        82        74        73        76        77
        74        73        76        78        74        73        76        79
        75        73        76        77        75        73        76        78
        75        73        76        79        77        76        79        80
        77        76        79        81        77        76        79        82
        78        76        79        80        78        76        79        81
        78        76        79        82        83        86        89        90
        83        86        89        91        83        86        89        92
        84        83        86        87        84        83        86        88
        84        83        86        89        85        83        86        87
        85        83        86        88        85        83        86        89
        86        89        92        93        86        89        92        94
        86        89        92        95        87        86        89        90
        87        86        89        91        87        86        89        92
        88        86        89        90        88        86        89        91
        88        86        89        92        89        92        95        96
        89        92        95        97        89        92        95        98
        90        89        92        93        90        89        92        94
        90        89        92        95        91        89        92        93
        91        89        92        94        91        89        92        95
        92        95        98        99        92        95        98       100
        92        95        98       101        93        92        95        96
        93        92        95        97        93        92        95        98
        94        92        95        96        94        92        95        97
        94        92        95        98        95        98       101       102
        95        98       101       103        96        95        98        99
        96        95        98       100        96        95        98       101
        97        95        98        99        97        95        98       100
        97        95        98       101        98       101       103       104
        98       101       103       105        99        98       101       102
        99        98       101       103       100        98       101       102
       100        98       101       103       101       103       105       106
       101       103       105       107       101       103       105       108
       102       101       103       104       102       101       103       105
       103       105       108       109       103       105       108       110
       103       105       108       111       104       103       105       106
       104       103       105       107       104       103       105       108
       105       108       111       112       105       108       111       113
       105       108       111       114       106       105       108       109
       106       105       108       110       106       105       108       111
       107       105       108       109       107       105       108       110
       107       105       108       111       108       111       114       115
       108       111       114       116       108       111       114       117
       109       108       111       112       109       108       111       113
       109       108       111       114       110       108       111       112
       110       108       111       113       110       108       111       114
       111       114       117       118       111       114       117       119
       111       114       117       120       112       111       114       115
       112       111       114       116       112       111       114       117
       113       111       114       115       113       111       114       116
       113       111       114       117       114       117       120       121
       114       117       120       122       114       117       120       123
       115       114       117       118       115       114       117       119
       115       114       117       120       116       114       117       118
       116       114       117       119       116       114       117       120
       117       120       123       124       117       120       123       125
       117       120       123       126       118       117       120       121
       118       117       120       122       118       117       120       123
       119       117       120       121       119       117       120       122
       119       117       120       123       120       123       126       127
       120       123       126       128       120       123       126       129
       121       120       123       124       121       120       123       125
       121       120       123       126       122       120       123       124
       122       120       123       125       122       120       123       126
       124       123       126       127       124       123       126       128
       124       123       126       129       125       123       126       127
       125       123       126       128       125       123       126       129
       130       143       146       147       130       143       146       148
       130       143       146       153       131       130       135       136
       131       130       135       137       131       130       135       138
       131       130       139       140       131       130       139       141
       131       130       139       142       131       130       143       144
       131       130       143       145       131       130       143       146
       132       131       130       135       132       131       130       139
       132       131       130       143       133       131       130       135
       133       131       130       139       133       131       130       143
       134       131       130       135       134       131       130       139
       134       131       130       143       135       130       139       140
       135       130       139       141       135       130       139       142
       135       130       143       144       135       130       143       145
       135       130       143       146       136       135       130       139
       136       135       130       143       137       135       130       139
       137       135       130       143       138       135       130       139
       138       135       130       143       139       130       143       144
       139       130       143       145       139       130       143       146
       140       139       130       143       141       139       130       143
       142       139       130       143       143       146       153       149
       144       143       146       147       144       143       146       148
       144       143       146       153       145       143       146       147
       145       143       146       148       145       143       146       153
       146       153       149       150       146       153       149       151
       146       153       149       152       147       146       153       149
       148       146       153       149       149       152       154       155
       149       152       154       156       149       152       154       159
       150       149       152       154       151       149       152       154
       152       154       159       157       152       154       159       160
       152       154       159       161       153       149       152       154
       154       159       157       158       154       159       157       209
       154       159       161       162       154       159       161       163
       154       159       161       165       155       154       159       157
       155       154       159       160       155       154       159       161
       156       154       159       157       156       154       159       160
       156       154       159       161       157       159       161       162
       157       159       161       163       157       159       161       165
       157       209       211       212       157       209       211       213
       157       209       211       214       158       157       159       160
       158       157       159       161       158       157       209       210
       158       157       209       211       159       157       209       210
       159       157       209       211       159       161       163       164
       159       161       165       166       159       161       165       167
       160       159       157       209       160       159       161       162
       160       159       161       163       160       159       161       165
       161       159       157       209       161       165       167       168
       161       165       167       169       162       161       163       164
       162       161       165       166       162       161       165       167
       163       161       165       166       163       161       165       167
       164       163       161       165       165       167       169       170
       165       167       169       171       165       167       169       172
       166       165       167       168       166       165       167       169
       167       169       172       173       167       169       172       174
       167       169       172       175       168       167       169       170
       168       167       169       171       168       167       169       172
       169       172       175       176       169       172       175       177
       169       172       175       178       170       169       172       173
       170       169       172       174       170       169       172       175
       171       169       172       173       171       169       172       174
       171       169       172       175       172       175       178       179
       172       175       178       180       172       175       178       181
       173       172       175       176       173       172       175       177
       173       172       175       178       174       172       175       176
       174       172       175       177       174       172       175       178
       175       178       181       182       175       178       181       183
       175       178       181       184       176       175       178       179
       176       175       178       180       176       175       178       181
       177       175       178       179       177       175       178       180
       177       175       178       181       178       181       184       185
       178       181       184       186       178       181       184       187
       179       178       181       182       179       178       181       183
       179       178       181       184       180       178       181       182
       180       178       181       183       180       178       181       184
       181       184       187       188       181       184       187       189
       181       184       187       190       182       181       184       185
       182       181       184       186       182       181       184       187
       183       181       184       185       183       181       184       186
       183       181       184       187       184       187       190       191
       184       187       190       192       184       187       190       193
       185       184       187       188       185       184       187       189
       185       184       187       190       186       184       187       188
       186       184       187       189       186       184       187       190
       187       190       193       194       187       190       193       195
       187       190       193       196       188       187       190       191
       188       187       190       192       188       187       190       193
       189       187       190       191       189       187       190       192
       189       187       190       193       190       193       196       197
       190       193       196       198       190       193       196       199
       191       190       193       194       191       190       193       195
       191       190       193       196       192       190       193       194
       192       190       193       195       192       190       193       196
       193       196       199       200       193       196       199       201
       193       196       199       202       194       193       196       197
       194       193       196       198       194       193       196       199
       195       193       196       197       195       193       196       198
       195       193       196       199       196       199       202       203
       196       199       202       204       196       199       202       205
       197       196       199       200       197       196       199       201
       197       196       199       202       198       196       199       200
       198       196       199       201       198       196       199       202
       199       202       205       206       199       202       205       207
       199       202       205       208       200       199       202       203
       200       199       202       204       200       199       202       205
       201       199       202       203       201       199       202       204
       201       199       202       205       203       202       205       206
       203       202       205       207       203       202       205       208
       204       202       205       206       204       202       205       207
       204       202       205       208       209       211       214       215
       209       211       214       216       209       211       214       217
       210       209       211       212       210       209       211       213
       210       209       211       214       211       214       217       218
       211       214       217       219       211       214       217       220
       212       211       214       215       212       211       214       216
       212       211       214       217       213       211       214       215
       213       211       214       216       213       211       214       217
       214       217       220       221       214       217       220       222
       214       217       220       223       215       214       217       218
       215       214       217       219       215       214       217       220
       216       214       217       218       216       214       217       219
       216       214       217       220       217       220       223       224
       217       220       223       225       217       220       223       226
       218       217       220       221       218       217       220       222
       218       217       220       223       219       217       220       221
       219       217       220       222       219       217       220       223
       220       223       226       227       220       223       226       228
       220       223       226       229       221       220       223       224
       221       220       223       225       221       220       223       226
       222       220       223       224       222       220       223       225
       222       220       223       226       223       226       229       230
       223       226       229       231       223       226       229       232
       224       223       226       227       224       223       226       228
       224       223       226       229       225       223       226       227
       225       223       226       228       225       223       226       229
       226       229       232       233       226       229       232       234
       226       229       232       235       227       226       229       230
       227       226       229       231       227       226       229       232
       228       226       229       230       228       226       229       231
       228       226       229       232       229       232       235       236
       229       232       235       237       229       232       235       238
       230       229       232       233       230       229       232       234
       230       229       232       235       231       229       232       233
       231       229       232       234       231       229       232       235
       232       235       238       239       232       235       238       240
       232       235       238       241       233       232       235       236
       233       232       235       237       233       232       235       238
       234       232       235       236       234       232       235       237
       234       232       235       238       235       238       241       242
       235       238       241       243       235       238       241       244
       236       235       238       239       236       235       238       240
       236       235       238       241       237       235       238       239
       237       235       238       240       237       235       238       241
       238       241       244       245       238       241       244       246
       238       241       244       247       239       238       241       242
       239       238       241       243       239       238       241       244
       240       238       241       242       240       238       241       243
       240       238       241       244       241       244       247       248
       241       244       247       249       241       244       247       250
       242       241       244       245       242       241       244       246
       242       241       244       247       243       241       244       245
       243       241       244       246       243       241       244       247
       244       247       250       251       244       247       250       252
       244       247       250       253       245       244       247       248
       245       244       247       249       245       244       247       250
       246       244       247       248       246       244       247       249
       246       244       247       250       247       250       253       254
       247       250       253       255       247       250       253       256
       248       247       250       251       248       247       250       252
       248       247       250       253       249       247       250       251
       249       247       250       252       249       247       250       253
       250       253       256       257       250       253       256       258
       250       253       256       259       251       250       253       254
       251       250       253       255       251       250       253       256
       252       250       253       254       252       250       253       255
       252       250       253       256       253       256       259       260
       253       256       259       261       253       256       259       262
       254       253       256       257       254       253       256       258
       254       253       256       259       255       253       256       257
       255       253       256       258       255       253       256       259
       256       259       262       263       256       259       262       264
       256       259       262       265       257       256       259       260
       257       256       259       261       257       256       259       262
       258       256       259       260       258       256       259       261
       258       256       259       262       259       262       265       266
       259       262       265       267       259       262       265       268
       260       259       262       263       260       259       262       264
       260       259       262       265       261       259       262       263
       261       259       262       264       261       259       262       265
       262       265       268       269       262       265       268       270
       262       265       268       271       263       262       265       266
       263       262       265       267       263       262       265       268
       264       262       265       266       264       262       265       267
       264       262       265       268       265       268       271       272
       265       268       271       273       265       268       271       274
       266       265       268       269       266       265       268       270
       266       265       268       271       267       265       268       269
       267       265       268       270       267       265       268       271
       268       271       274       275       268       271       274       276
       268       271       274       277       269       268       271       272
       269       268       271       273       269       268       271       274
       270       268       271       272       270       268       271       273
       270       268       271       274       272       271       274       275
       272       271       274       276       272       271       274       277
       273       271       274       275       273       271       274       276
       273       271       274       277       278       291       294       295
       278       291       294       296       278       291       294       301
       279       278       283       284       279       278       283       285
       279       278       283       286       279       278       287       288
       279       278       287       289       279       278       287       290
       279       278       291       292       279       278       291       293
       279       278       291       294       280       279       278       283
       280       279       278       287       280       279       278       291
       281       279       278       283       281       279       278       287
       281       279       278       291       282       279       278       283
       282       279       278       287       282       279       278       291
       283       278       287       288       283       278       287       289
       283       278       287       290       283       278       291       292
       283       278       291       293       283       278       291       294
       284       283       278       287       284       283       278       291
       285       283       278       287       285       283       278       291
       286       283       278       287       286       283       278       291
       287       278       291       292       287       278       291       293
       287       278       291       294       288       287       278       291
       289       287       278       291       290       287       278       291
       291       294       301       297       292       291       294       295
       292       291       294       296       292       291       294       301
       293       291       294       295       293       291       294       296
       293       291       294       301       294       301       297       298
       294       301       297       299       294       301       297       300
       295       294       301       297       296       294       301       297
       297       300       302       303       297       300       302       304
       297       300       302       307       298       297       300       302
       299       297       300       302       300       302       307       305
       300       302       307       308       300       302       307       309
       301       297       300       302       302       307       305       306
       302       307       305       357       302       307       309       310
       302       307       309       311       302       307       309       313
       303       302       307       305       303       302       307       308
       303       302       307       309       304       302       307       305
       304       302       307       308       304       302       307       309
       305       307       309       310       305       307       309       311
       305       307       309       313       305       357       359       360
       305       357       359       361       305       357       359       362
       306       305       307       308       306       305       307       309
       306       305       357       358       306       305       357       359
       307       305       357       358       307       305       357       359
       307       309       311       312       307       309       313       314
       307       309       313       315       308       307       305       357
       308       307       309       310       308       307       309       311
       308       307       309       313       309       307       305       357
       309       313       315       316       309       313       315       317
       310       309       311       312       310       309       313       314
       310       309       313       315       311       309       313       314
       311       309       313       315       312       311       309       313
       313       315       317       318       313       315       317       319
       313       315       317       320       314       313       315       316
       314       313       315       317       315       317       320       321
       315       317       320       322       315       317       320       323
       316       315       317       318       316       315       317       319
       316       315       317       320       317       320       323       324
       317       320       323       325       317       320       323       326
       318       317       320       321       318       317       320       322
       318       317       320       323       319       317       320       321
       319       317       320       322       319       317       320       323
       320       323       326       327       320       323       326       328
       320       323       326       329       321       320       323       324
       321       320       323       325       321       320       323       326
       322       320       323       324       322       320       323       325
       322       320       323       326       323       326       329       330
       323       326       329       331       323       326       329       332
       324       323       326       327       324       323       326       328
       324       323       326       329       325       323       326       327
       325       323       326       328       325       323       326       329
       326       329       332       333       326       329       332       334
       326       329       332       335       327       326       329       330
       327       326       329       331       327       326       329       332
       328       326       329       330       328       326       329       331
       328       326       329       332       329       332       335       336
       329       332       335       337       329       332       335       338
       330       329       332       333       330       329       332       334
       330       329       332       335       331       329       332       333
       331       329       332       334       331       329       332       335
       332       335       338       339       332       335       338       340
       332       335       338       341       333       332       335       336
       333       332       335       337       333       332       335       338
       334       332       335       336       334       332       335       337
       334       332       335       338       335       338       341       342
       335       338       341       343       335       338       341       344
       336       335       338       339       336       335       338       340
       336       335       338       341       337       335       338       339
       337       335       338       340       337       335       338       341
       338       341       344       345       338       341       344       346
       338       341       344       347       339       338       341       342
       339       338       341       343       339       338       341       344
       340       338       341       342       340       338       341       343
       340       338       341       344       341       344       347       348
       341       344       347       349       341       344       347       350
       342       341       344       345       342       341       344       346
       342       341       344       347       343       341       344       345
       343       341       344       346       343       341       344       347
       344       347       350       351       344       347       350       352
       344       347       350       353       345       344       347       348
       345       344       347       349       345       344       347       350
       346       344       347       348       346       344       347       349
       346       344       347       350       347       350       353       354
       347       350       353       355       347       350       353       356
       348       347       350       351       348       347       350       352
       348       347       350       353       349       347       350       351
       349       347       350       352       349       347       350       353
       351       350       353       354       351       350       353       355
       351       350       353       356       352       350       353       354
       352       350       353       355       352       350       353       356
       357       359       362       363       357       359       362       364
       357       359       362       365       358       357       359       360
       358       357       359       361       358       357       359       362
       359       362       365       366       359       362       365       367
       359       362       365       368       360       359       362       363
       360       359       362       364       360       359       362       365
       361       359       362       363       361       359       362       364
       361       359       362       365       362       365       368       369
       362       365       368       370       362       365       368       371
       363       362       365       366       363       362       365       367
       363       362       365       368       364       362       365       366
       364       362       365       367       364       362       365       368
       365       368       371       372       365       368       371       373
       365       368       371       374       366       365       368       369
       366       365       368       370       366       365       368       371
       367       365       368       369       367       365       368       370
       367       365       368       371       368       371       374       375
       368       371       374       376       368       371       374       377
       369       368       371       372       369       368       371       373
       369       368       371       374       370       368       371       372
       370       368       371       373       370       368       371       374
       371       374       377       378       371       374       377       379
       371       374       377       380       372       371       374       375
       372       371       374       376       372       371       374       377
       373       371       374       375       373       371       374       376
       373       371       374       377       374       377       380       381
       374       377       380       382       374       377       380       383
       375       374       377       378       375       374       377       379
       375       374       377       380       376       374       377       378
       376       374       377       379       376       374       377       380
       377       380       383       384       377       380       383       385
       377       380       383       386       378       377       380       381
       378       377       380       382       378       377       380       383
       379       377       380       381       379       377       380       382
       379       377       380       383       380       383       386       387
       380       383       386       388       380       383       386       389
       381       380       383       384       381       380       383       385
       381       380       383       386       382       380       383       384
       382       380       383       385       382       380       383       386
       383       386       389       390       383       386       389       391
       383       386       389       392       384       383       386       387
       384       383       386       388       384       383       386       389
       385       383       386       387       385       383       386       388
       385       383       386       389       386       389       392       393
       386       389       392       394       386       389       392       395
       387       386       389       390       387       386       389       391
       387       386       389       392       388       386       389       390
       388       386       389       391       388       386       389       392
       389       392       395       396       389       392       395       397
       389       392       395       398       390       389       392       393
       390       389       392       394       390       389       392       395
       391       389       392       393       391       389       392       394
       391       389       392       395       392       395       398       399
       392       395       398       400       392       395       398       401
       393       392       395       396       393       392       395       397
       393       392       395       398       394       392       395       396
       394       392       395       397       394       392       395       398
       395       398       401       402       395       398       401       403
       395       398       401       404       396       395       398       399
       396       395       398       400       396       395       398       401
       397       395       398       399       397       395       398       400
       397       395       398       401       398       401       404       405
       398       401       404       406       398       401       404       407
       399       398       401       402       399       398       401       403
       399       398       401       404       400       398       401       402
       400       398       401       403       400       398       401       404
       401       404       407       408       401       404       407       409
       401       404       407       410       402       401       404       405
       402       401       404       406       402       401       404       407
       403       401       404       405       403       401       404       406
       403       401       404       407       404       407       410       411
       404       407       410       412       404       407       410       413
       405       404       407       408       405       404       407       409
       405       404       407       410       406       404       407       408
       406       404       407       409       406       404       407       410
       407       410       413       414       407       410       413       415
       407       410       413       416       408       407       410       411
       408       407       410       412       408       407       410       413
       409       407       410       411       409       407       410       412
       409       407       410       413       410       413       416       417
       410       413       416       418       410       413       416       419
       411       410       413       414       411       410       413       415
       411       410       413       416       412       410       413       414
       412       410       413       415       412       410       413       416
       413       416       419       420       413       416       419       421
       413       416       419       422       414       413       416       417
       414       413       416       418       414       413       416       419
       415       413       416       417       415       413       416       418
       415       413       416       419       416       419       422       423
       416       419       422       424       416       419       422       425
       417       416       419       420       417       416       419       421
       417       416       419       422       418       416       419       420
       418       416       419       421       418       416       419       422
       420       419       422       423       420       419       422       424
       420       419       422       425       421       419       422       423
       421       419       422       424       421       419       422       425
       426       430       433       434       426       430       433       464
       426       472       469       464       426       472       469       470
       426       472       469       471       427       426       428       429
       427       426       430       431       427       426       430       432
       427       426       430       433       427       426       472       469
       427       426       472       473       427       426       472       474
       428       426       430       431       428       426       430       432
       428       426       430       433       428       426       472       469
       428       426       472       473       428       426       472       474
       429       428       426       430       429       428       426       472
       430       426       472       469       430       426       472       473
       430       426       472       474       430       433       434       435
       430       433       434       436       430       433       464       462
       430       433       464       465       430       433       464       469
       431       430       426       472       431       430       433       434
       431       430       433       464       432       430       426       472
       432       430       433       434       432       430       433       464
       433       430       426       472       433       434       436       437
       433       434       436       438       433       434       436       439
       433       464       462       439       433       464       462       459
       433       464       462       463       433       464       465       466
       433       464       465       467       433       464       465       468
       433       464       469       470       433       464       469       471
       433       464       469       472       434       433       464       462
       434       433       464       465       434       433       464       469
       434       436       439       440       434       436       439       441
       434       436       439       462       435       434       433       464
       435       434       436       437       435       434       436       438
       435       434       436       439       436       434       433       464
       436       439       441       442       436       439       441       443
       436       439       441       451       436       439       462       459
       436       439       462       463       436       439       462       464
       437       436       439       440       437       436       439       441
       437       436       439       462       438       436       439       440
       438       436       439       441       438       436       439       462
       439       441       443       444       439       441       443       445
       439       441       443       446       439       441       451       449
       439       441       451       452       439       441       451       456
       439       462       459       456       439       462       459       460
       439       462       459       461       439       462       464       465
       439       462       464       469       440       439       441       442
       440       439       441       443       440       439       441       451
       440       439       462       459       440       439       462       463
       440       439       462       464       441       439       462       459
       441       439       462       463       441       439       462       464
       441       443       446       447       441       443       446       448
       441       443       446       449       441       451       449       446
       441       451       449       450       441       451       449       475
       441       451       452       453       441       451       452       454
       441       451       452       455       441       451       456       457
       441       451       456       458       441       451       456       459
       442       441       439       462       442       441       443       444
       442       441       443       445       442       441       443       446
       442       441       451       449       442       441       451       452
       442       441       451       456       443       441       439       462
       443       441       451       449       443       441       451       452
       443       441       451       456       443       446       449       450
       443       446       449       451       443       446       449       475
       444       443       441       451       444       443       446       447
       444       443       446       448       444       443       446       449
       445       443       441       451       445       443       446       447
       445       443       446       448       445       443       446       449
       446       443       441       451       446       449       451       452
       446       449       451       456       446       449       475       476
       446       449       475       477       446       449       475       481
       447       446       449       450       447       446       449       451
       447       446       449       475       448       446       449       450
       448       446       449       451       448       446       449       475
       449       451       452       453       449       451       452       454
       449       451       452       455       449       451       456       457
       449       451       456       458       449       451       456       459
       449       475       477       478       449       475       477       479
       449       475       477       480       449       475       481       482
       449       475       481       483       449       475       481       484
       450       449       451       452       450       449       451       456
       450       449       475       476       450       449       475       477
       450       449       475       481       451       441       439       462
       451       449       475       476       451       449       475       477
       451       449       475       481       451       456       459       460
       451       456       459       461       451       456       459       462
       452       451       449       475       452       451       456       457
       452       451       456       458       452       451       456       459
       453       452       451       456       454       452       451       456
       455       452       451       456       456       451       449       475
       456       459       462       463       456       459       462       464
       457       456       459       460       457       456       459       461
       457       456       459       462       458       456       459       460
       458       456       459       461       458       456       459       462
       459       462       464       465       459       462       464       469
       460       459       462       463       460       459       462       464
       461       459       462       463       461       459       462       464
       462       464       465       466       462       464       465       467
       462       464       465       468       462       464       469       470
       462       464       469       471       462       464       469       472
       463       462       464       465       463       462       464       469
       464       469       472       473       464       469       472       474
       465       464       469       470       465       464       469       471
       465       464       469       472       466       465       464       469
       467       465       464       469       468       465       464       469
       470       469       472       473       470       469       472       474
       471       469       472       473       471       469       472       474
       475       481       484       485       475       481       484       486
       475       481       484       487       476       475       477       478
       476       475       477       479       476       475       477       480
       476       475       481       482       476       475       481       483
       476       475       481       484       477       475       481       482
       477       475       481       483       477       475       481       484
       478       477       475       481       479       477       475       481
       480       477       475       481       481       484       487       488
       481       484       487       489       481       484       487       490
       482       481       484       485       482       481       484       486
       482       481       484       487       483       481       484       485
       483       481       484       486       483       481       484       487
       484       487       490       491       484       487       490       492
       484       487       490       496       485       484       487       488
       485       484       487       489       485       484       487       490
       486       484       487       488       486       484       487       489
       486       484       487       490       487       490       492       493
       487       490       492       494       487       490       492       495
       487       490       496       497       487       490       496       498
       487       490       496       499       488       487       490       491
       488       487       490       492       488       487       490       496
       489       487       490       491       489       487       490       492
       489       487       490       496       491       490       492       493
       491       490       492       494       491       490       492       495
       491       490       496       497       491       490       496       498
       491       490       496       499       492       490       496       497
       492       490       496       498       492       490       496       499
       493       492       490       496       494       492       490       496
       495       492       490       496       500       504       507       508
       500       504       507       509       500       504       507       514
       501       500       504       505       501       500       504       506
       501       500       504       507       502       500       504       505
       502       500       504       506       502       500       504       507
       503       500       504       505       503       500       504       506
       503       500       504       507       504       507       514       510
       505       504       507       508       505       504       507       509
       505       504       507       514       506       504       507       508
       506       504       507       509       506       504       507       514
       507       514       510       511       507       514       510       512
       507       514       510       513       508       507       514       510
       509       507       514       510       510       513       515       516
       510       513       515       517       510       513       515       518
       511       510       513       515       512       510       513       515
       513       515       518       519       513       515       518       520
       513       515       518       526       514       510       513       515
       515       518       520       521       515       518       526       527
       515       518       526       528       515       518       526       529
       516       515       518       519       516       515       518       520
       516       515       518       526       517       515       518       519
       517       515       518       520       517       515       518       526
       518       520       521       522       518       520       521       523
       518       526       529       530       519       518       520       521
       519       518       526       527       519       518       526       528
       519       518       526       529       520       518       526       527
       520       518       526       528       520       518       526       529
       520       521       523       524       520       521       523       525
       520       521       523       535       521       520       518       526
       521       523       535       536       521       523       535       537
       521       523       535       538       522       521       523       524
       522       521       523       525       522       521       523       535
       523       535       538       539       523       535       538       540
       523       535       538       541       524       523       535       536
       524       523       535       537       524       523       535       538
       525       523       535       536       525       523       535       537
       525       523       535       538       526       529       530       531
       526       529       530       532       527       526       529       530
       528       526       529       530       529       530       532       533
       529       530       532       534       529       530       532       582
       530       532       582       583       530       532       582       584
       530       532       582       585       531       530       532       533
       531       530       532       534       531       530       532       582
       532       582       585       586       532       582       585       587
       532       582       585       588       533       532       582       583
       533       532       582       584       533       532       582       585
       534       532       582       583       534       532       582       584
       534       532       582       585       535       538       541       542
       535       538       541       543       535       538       541       544
       536       535       538       539       536       535       538       540
       536       535       538       541       537       535       538       539
       537       535       538       540       537       535       538       541
       538       541       544       545       538       541       544       546
       538       541       544       547       539       538       541       542
       539       538       541       543       539       538       541       544
       540       538       541       542       540       538       541       543
       540       538       541       544       541       544       547       548
       541       544       547       549       541       544       547       550
       542       541       544       545       542       541       544       546
       542       541       544       547       543       541       544       545
       543       541       544       546       543       541       544       547
       544       547       550       551       544       547       550       552
       544       547       550       553       545       544       547       548
       545       544       547       549       545       544       547       550
       546       544       547       548       546       544       547       549
       546       544       547       550       547       550       553       554
       547       550       553       555       548       547       550       551
       548       547       550       552       548       547       550       553
       549       547       550       551       549       547       550       552
       549       547       550       553       550       553       555       556
       550       553       555       557       551       550       553       554
       551       550       553       555       552       550       553       554
       552       550       553       555       553       555       557       558
       553       555       557       559       553       555       557       560
       554       553       555       556       554       553       555       557
       555       557       560       561       555       557       560       562
       555       557       560       563       556       555       557       558
       556       555       557       559       556       555       557       560
       557       560       563       564       557       560       563       565
       557       560       563       566       558       557       560       561
       558       557       560       562       558       557       560       563
       559       557       560       561       559       557       560       562
       559       557       560       563       560       563       566       567
       560       563       566       568       560       563       566       569
       561       560       563       564       561       560       563       565
       561       560       563       566       562       560       563       564
       562       560       563       565       562       560       563       566
       563       566       569       570       563       566       569       571
       563       566       569       572       564       563       566       567
       564       563       566       568       564       563       566       569
       565       563       566       567       565       563       566       568
       565       563       566       569       566       569       572       573
       566       569       572       574       566       569       572       575
       567       566       569       570       567       566       569       571
       567       566       569       572       568       566       569       570
       568       566       569       571       568       566       569       572
       569       572       575       576       569       572       575       577
       569       572       575       578       570       569       572       573
       570       569       572       574       570       569       572       575
       571       569       572       573       571       569       572       574
       571       569       572       575       572       575       578       579
       572       575       578       580       572       575       578       581
       573       572       575       576       573       572       575       577
       573       572       575       578       574       572       575       576
       574       572       575       577       574       572       575       578
       576       575       578       579       576       575       578       580
       576       575       578       581       577       575       578       579
       577       575       578       580       577       575       578       581
       582       585       588       589       582       585       588       590
       582       585       588       591       583       582       585       586
       583       582       585       587       583       582       585       588
       584       582       585       586       584       582       585       587
       584       582       585       588       585       588       591       592
       585       588       591       593       585       588       591       594
       586       585       588       589       586       585       588       590
       586       585       588       591       587       585       588       589
       587       585       588       590       587       585       588       591
       588       591       594       595       588       591       594       596
       588       591       594       597       589       588       591       592
       589       588       591       593       589       588       591       594
       590       588       591       592       590       588       591       593
       590       588       591       594       591       594       597       598
       591       594       597       599       591       594       597       600
       592       591       594       595       592       591       594       596
       592       591       594       597       593       591       594       595
       593       591       594       596       593       591       594       597
       594       597       600       601       594       597       600       602
       595       594       597       598       595       594       597       599
       595       594       597       600       596       594       597       598
       596       594       597       599       596       594       597       600
       597       600       602       603       597       600       602       604
       598       597       600       601       598       597       600       602
       599       597       600       601       599       597       600       602
       600       602       604       605       600       602       604       606
       600       602       604       607       601       600       602       603
       601       600       602       604       602       604       607       608
       602       604       607       609       602       604       607       610
       603       602       604       605       603       602       604       606
       603       602       604       607       604       607       610       611
       604       607       610       612       604       607       610       613
       605       604       607       608       605       604       607       609
       605       604       607       610       606       604       607       608
       606       604       607       609       606       604       607       610
       607       610       613       614       607       610       613       615
       607       610       613       616       608       607       610       611
       608       607       610       612       608       607       610       613
       609       607       610       611       609       607       610       612
       609       607       610       613       610       613       616       617
       610       613       616       618       610       613       616       619
       611       610       613       614       611       610       613       615
       611       610       613       616       612       610       613       614
       612       610       613       615       612       610       613       616
       613       616       619       620       613       616       619       621
       613       616       619       622       614       613       616       617
       614       613       616       618       614       613       616       619
       615       613       616       617       615       613       616       618
       615       613       616       619       616       619       622       623
       616       619       622       624       616       619       622       625
       617       616       619       620       617       616       619       621
       617       616       619       622       618       616       619       620
       618       616       619       621       618       616       619       622
       619       622       625       626       619       622       625       627
       619       622       625       628       620       619       622       623
       620       619       622       624       620       619       622       625
       621       619       622       623       621       619       622       624
       621       619       622       625       623       622       625       626
       623       622       625       627       623       622       625       628
       624       622       625       626       624       622       625       627
       624       622       625       628       629       630       645       646
       629       630       645       647       629       630       645       651
       630       629       633       634       630       629       633       635
       630       629       633       636       630       629       637       638
       630       629       637       639       630       629       637       640
       630       629       641       642       630       629       641       643
       630       629       641       644       630       645       651       648
       631       630       629       633       631       630       629       637
       631       630       629       641       631       630       645       646
       631       630       645       647       631       630       645       651
       632       630       629       633       632       630       629       637
       632       630       629       641       632       630       645       646
       632       630       645       647       632       630       645       651
       633       629       630       645       633       629       637       638
       633       629       637       639       633       629       637       640
       633       629       641       642       633       629       641       643
       633       629       641       644       634       633       629       637
       634       633       629       641       635       633       629       637
       635       633       629       641       636       633       629       637
       636       633       629       641       637       629       630       645
       637       629       641       642       637       629       641       643
       637       629       641       644       638       637       629       641
       639       637       629       641       640       637       629       641
       641       629       630       645       645       651       648       649
       645       651       648       650       645       651       648       652
       646       645       651       648       647       645       651       648
       648       652       653       654       648       652       653       655
       648       652       653       656       649       648       652       653
       650       648       652       653       651       648       652       653
       652       653       656       657       652       653       656       658
       652       653       656       664       653       656       658       659
       653       656       664       665       653       656       664       666
       653       656       664       667       654       653       656       657
       654       653       656       658       654       653       656       664
       655       653       656       657       655       653       656       658
       655       653       656       664       656       658       659       660
       656       658       659       661       656       664       667       668
       657       656       658       659       657       656       664       665
       657       656       664       666       657       656       664       667
       658       656       664       665       658       656       664       666
       658       656       664       667       658       659       661       662
       658       659       661       663       658       659       661       673
       659       658       656       664       659       661       673       674
       659       661       673       675       659       661       673       676
       660       659       661       662       660       659       661       663
       660       659       661       673       661       673       676       677
       661       673       676       678       661       673       676       679
       662       661       673       674       662       661       673       675
       662       661       673       676       663       661       673       674
       663       661       673       675       663       661       673       676
       664       667       668       669       664       667       668       670
       665       664       667       668       666       664       667       668
       667       668       670       671       667       668       670       672
       667       668       670       720       668       670       720       721
       668       670       720       722       668       670       720       723
       669       668       670       671       669       668       670       672
       669       668       670       720       670       720       723       724
       670       720       723       725       670       720       723       726
       671       670       720       721       671       670       720       722
       671       670       720       723       672       670       720       721
       672       670       720       722       672       670       720       723
       673       676       679       680       673       676       679       681
       673       676       679       682       674       673       676       677
       674       673       676       678       674       673       676       679
       675       673       676       677       675       673       676       678
       675       673       676       679       676       679       682       683
       676       679       682       684       676       679       682       685
       677       676       679       680       677       676       679       681
       677       676       679       682       678       676       679       680
       678       676       679       681       678       676       679       682
       679       682       685       686       679       682       685       687
       679       682       685       688       680       679       682       683
       680       679       682       684       680       679       682       685
       681       679       682       683       681       679       682       684
       681       679       682       685       682       685       688       689
       682       685       688       690       682       685       688       691
       683       682       685       686       683       682       685       687
       683       682       685       688       684       682       685       686
       684       682       685       687       684       682       685       688
       685       688       691       692       685       688       691       693
       686       685       688       689       686       685       688       690
       686       685       688       691       687       685       688       689
       687       685       688       690       687       685       688       691
       688       691       693       694       688       691       693       695
       689       688       691       692       689       688       691       693
       690       688       691       692       690       688       691       693
       691       693       695       696       691       693       695       697
       691       693       695       698       692       691       693       694
       692       691       693       695       693       695       698       699
       693       695       698       700       693       695       698       701
       694       693       695       696       694       693       695       697
       694       693       695       698       695       698       701       702
       695       698       701       703       695       698       701       704
       696       695       698       699       696       695       698       700
       696       695       698       701       697       695       698       699
       697       695       698       700       697       695       698       701
       698       701       704       705       698       701       704       706
       698       701       704       707       699       698       701       702
       699       698       701       703       699       698       701       704
       700       698       701       702       700       698       701       703
       700       698       701       704       701       704       707       708
       701       704       707       709       701       704       707       710
       702       701       704       705       702       701       704       706
       702       701       704       707       703       701       704       705
       703       701       704       706       703       701       704       707
       704       707       710       711       704       707       710       712
       704       707       710       713       705       704       707       708
       705       704       707       709       705       704       707       710
       706       704       707       708       706       704       707       709
       706       704       707       710       707       710       713       714
       707       710       713       715       707       710       713       716
       708       707       710       711       708       707       710       712
       708       707       710       713       709       707       710       711
       709       707       710       712       709       707       710       713
       710       713       716       717       710       713       716       718
       710       713       716       719       711       710       713       714
       711       710       713       715       711       710       713       716
       712       710       713       714       712       710       713       715
       712       710       713       716       714       713       716       717
       714       713       716       718       714       713       716       719
       715       713       716       717       715       713       716       718
       715       713       716       719       720       723       726       727
       720       723       726       728       720       723       726       729
       721       720       723       724       721       720       723       725
       721       720       723       726       722       720       723       724
       722       720       723       725       722       720       723       726
       723       726       729       730       723       726       729       731
       723       726       729       732       724       723       726       727
       724       723       726       728       724       723       726       729
       725       723       726       727       725       723       726       728
       725       723       726       729       726       729       732       733
       726       729       732       734       726       729       732       735
       727       726       729       730       727       726       729       731
       727       726       729       732       728       726       729       730
       728       726       729       731       728       726       729       732
       729       732       735       736       729       732       735       737
       729       732       735       738       730       729       732       733
       730       729       732       734       730       729       732       735
       731       729       732       733       731       729       732       734
       731       729       732       735       732       735       738       739
       732       735       738       740       733       732       735       736
       733       732       735       737       733       732       735       738
       734       732       735       736       734       732       735       737
       734       732       735       738       735       738       740       741
       735       738       740       742       736       735       738       739
       736       735       738       740       737       735       738       739
       737       735       738       740       738       740       742       743
       738       740       742       744       738       740       742       745
       739       738       740       741       739       738       740       742
       740       742       745       746       740       742       745       747
       740       742       745       748       741       740       742       743
       741       740       742       744       741       740       742       745
       742       745       748       749       742       745       748       750
       742       745       748       751       743       742       745       746
       743       742       745       747       743       742       745       748
       744       742       745       746       744       742       745       747
       744       742       745       748       745       748       751       752
       745       748       751       753       745       748       751       754
       746       745       748       749       746       745       748       750
       746       745       748       751       747       745       748       749
       747       745       748       750       747       745       748       751
       748       751       754       755       748       751       754       756
       748       751       754       757       749       748       751       752
       749       748       751       753       749       748       751       754
       750       748       751       752       750       748       751       753
       750       748       751       754       751       754       757       758
       751       754       757       759       751       754       757       760
       752       751       754       755       752       751       754       756
       752       751       754       757       753       751       754       755
       753       751       754       756       753       751       754       757
       754       757       760       761       754       757       760       762
       754       757       760       763       755       754       757       758
       755       754       757       759       755       754       757       760
       756       754       757       758       756       754       757       759
       756       754       757       760       757       760       763       764
       757       760       763       765       757       760       763       766
       758       757       760       761       758       757       760       762
       758       757       760       763       759       757       760       761
       759       757       760       762       759       757       760       763
       761       760       763       764       761       760       763       765
       761       760       763       766       762       760       763       764
       762       760       763       765       762       760       763       766
       767       768       783       784       767       768       783       785
       767       768       783       789       768       767       771       772
       768       767       771       773       768       767       771       774
       768       767       775       776       768       767       775       777
       768       767       775       778       768       767       779       780
       768       767       779       781       768       767       779       782
       768       783       789       786       769       768       767       771
       769       768       767       775       769       768       767       779
       769       768       783       784       769       768       783       785
       769       768       783       789       770       768       767       771
       770       768       767       775       770       768       767       779
       770       768       783       784       770       768       783       785
       770       768       783       789       771       767       768       783
       771       767       775       776       771       767       775       777
       771       767       775       778       771       767       779       780
       771       767       779       781       771       767       779       782
       772       771       767       775       772       771       767       779
       773       771       767       775       773       771       767       779
       774       771       767       775       774       771       767       779
       775       767       768       783       775       767       779       780
       775       767       779       781       775       767       779       782
       776       775       767       779       777       775       767       779
       778       775       767       779       779       767       768       783
       783       789       786       787       783       789       786       788
       783       789       786       790       784       783       789       786
       785       783       789       786       786       790       791       792
       786       790       791       793       786       790       791       794
       787       786       790       791       788       786       790       791
       789       786       790       791       790       791       794       795
       790       791       794       796       790       791       794       802
       791       794       796       797       791       794       802       803
       791       794       802       804       791       794       802       805
       792       791       794       795       792       791       794       796
       792       791       794       802       793       791       794       795
       793       791       794       796       793       791       794       802
       794       796       797       798       794       796       797       799
       794       802       805       806       795       794       796       797
       795       794       802       803       795       794       802       804
       795       794       802       805       796       794       802       803
       796       794       802       804       796       794       802       805
       796       797       799       800       796       797       799       801
       796       797       799       811       797       796       794       802
       797       799       811       812       797       799       811       813
       797       799       811       814       798       797       799       800
       798       797       799       801       798       797       799       811
       799       811       814       815       799       811       814       816
       799       811       814       817       800       799       811       812
       800       799       811       813       800       799       811       814
       801       799       811       812       801       799       811       813
       801       799       811       814       802       805       806       807
       802       805       806       808       803       802       805       806
       804       802       805       806       805       806       808       809
       805       806       808       810       805       806       808       858
       806       808       858       859       806       808       858       860
       806       808       858       861       807       806       808       809
       807       806       808       810       807       806       808       858
       808       858       861       862       808       858       861       863
       808       858       861       864       809       808       858       859
       809       808       858       860       809       808       858       861
       810       808       858       859       810       808       858       860
       810       808       858       861       811       814       817       818
       811       814       817       819       811       814       817       820
       812       811       814       815       812       811       814       816
       812       811       814       817       813       811       814       815
       813       811       814       816       813       811       814       817
       814       817       820       821       814       817       820       822
       814       817       820       823       815       814       817       818
       815       814       817       819       815       814       817       820
       816       814       817       818       816       814       817       819
       816       814       817       820       817       820       823       824
       817       820       823       825       817       820       823       826
       818       817       820       821       818       817       820       822
       818       817       820       823       819       817       820       821
       819       817       820       822       819       817       820       823
       820       823       826       827       820       823       826       828
       820       823       826       829       821       820       823       824
       821       820       823       825       821       820       823       826
       822       820       823       824       822       820       823       825
       822       820       823       826       823       826       829       830
       823       826       829       831       824       823       826       827
       824       823       826       828       824       823       826       829
       825       823       826       827       825       823       826       828
       825       823       826       829       826       829       831       832
       826       829       831       833       827       826       829       830
       827       826       829       831       828       826       829       830
       828       826       829       831       829       831       833       834
       829       831       833       835       829       831       833       836
       830       829       831       832       830       829       831       833
       831       833       836       837       831       833       836       838
       831       833       836       839       832       831       833       834
       832       831       833       835       832       831       833       836
       833       836       839       840       833       836       839       841
       833       836       839       842       834       833       836       837
       834       833       836       838       834       833       836       839
       835       833       836       837       835       833       836       838
       835       833       836       839       836       839       842       843
       836       839       842       844       836       839       842       845
       837       836       839       840       837       836       839       841
       837       836       839       842       838       836       839       840
       838       836       839       841       838       836       839       842
       839       842       845       846       839       842       845       847
       839       842       845       848       840       839       842       843
       840       839       842       844       840       839       842       845
       841       839       842       843       841       839       842       844
       841       839       842       845       842       845       848       849
       842       845       848       850       842       845       848       851
       843       842       845       846       843       842       845       847
       843       842       845       848       844       842       845       846
       844       842       845       847       844       842       845       848
       845       848       851       852       845       848       851       853
       845       848       851       854       846       845       848       849
       846       845       848       850       846       845       848       851
       847       845       848       849       847       845       848       850
       847       845       848       851       848       851       854       855
       848       851       854       856       848       851       854       857
       849       848       851       852       849       848       851       853
       849       848       851       854       850       848       851       852
       850       848       851       853       850       848       851       854
       852       851       854       855       852       851       854       856
       852       851       854       857       853       851       854       855
       853       851       854       856       853       851       854       857
       858       861       864       865       858       861       864       866
       858       861       864       867       859       858       861       862
       859       858       861       863       859       858       861       864
       860       858       861       862       860       858       861       863
       860       858       861       864       861       864       867       868
       861       864       867       869       861       864       867       870
       862       861       864       865       862       861       864       866
       862       861       864       867       863       861       864       865
       863       861       864       866       863       861       864       867
       864       867       870       871       864       867       870       872
       864       867       870       873       865       864       867       868
       865       864       867       869       865       864       867       870
       866       864       867       868       866       864       867       869
       866       864       867       870       867       870       873       874
       867       870       873       875       867       870       873       876
       868       867       870       871       868       867       870       872
       868       867       870       873       869       867       870       871
       869       867       870       872       869       867       870       873
       870       873       876       877       870       873       876       878
       871       870       873       874       871       870       873       875
       871       870       873       876       872       870       873       874
       872       870       873       875       872       870       873       876
       873       876       878       879       873       876       878       880
       874       873       876       877       874       873       876       878
       875       873       876       877       875       873       876       878
       876       878       880       881       876       878       880       882
       876       878       880       883       877       876       878       879
       877       876       878       880       878       880       883       884
       878       880       883       885       878       880       883       886
       879       878       880       881       879       878       880       882
       879       878       880       883       880       883       886       887
       880       883       886       888       880       883       886       889
       881       880       883       884       881       880       883       885
       881       880       883       886       882       880       883       884
       882       880       883       885       882       880       883       886
       883       886       889       890       883       886       889       891
       883       886       889       892       884       883       886       887
       884       883       886       888       884       883       886       889
       885       883       886       887       885       883       886       888
       885       883       886       889       886       889       892       893
       886       889       892       894       886       889       892       895
       887       886       889       890       887       886       889       891
       887       886       889       892       888       886       889       890
       888       886       889       891       888       886       889       892
       889       892       895       896       889       892       895       897
       889       892       895       898       890       889       892       893
       890       889       892       894       890       889       892       895
       891       889       892       893       891       889       892       894
       891       889       892       895       892       895       898       899
       892       895       898       900       892       895       898       901
       893       892       895       896       893       892       895       897
       893       892       895       898       894       892       895       896
       894       892       895       897       894       892       895       898
       895       898       901       902       895       898       901       903
       895       898       901       904       896       895       898       899
       896       895       898       900       896       895       898       901
       897       895       898       899       897       895       898       900
       897       895       898       901       899       898       901       902
       899       898       901       903       899       898       901       904
       900       898       901       902       900       898       901       903
       900       898       901       904       905       906       921       922
       905       906       921       923       905       906       921       927
       906       905       909       910       906       905       909       911
       906       905       909       912       906       905       913       914
       906       905       913       915       906       905       913       916
       906       905       917       918       906       905       917       919
       906       905       917       920       906       921       927       924
       907       906       905       909       907       906       905       913
       907       906       905       917       907       906       921       922
       907       906       921       923       907       906       921       927
       908       906       905       909       908       906       905       913
       908       906       905       917       908       906       921       922
       908       906       921       923       908       906       921       927
       909       905       906       921       909       905       913       914
       909       905       913       915       909       905       913       916
       909       905       917       918       909       905       917       919
       909       905       917       920       910       909       905       913
       910       909       905       917       911       909       905       913
       911       909       905       917       912       909       905       913
       912       909       905       917       913       905       906       921
       913       905       917       918       913       905       917       919
       913       905       917       920       914       913       905       917
       915       913       905       917       916       913       905       917
       917       905       906       921       921       927       924       925
       921       927       924       926       921       927       924       928
       922       921       927       924       923       921       927       924
       924       928       929       930       924       928       929       931
       924       928       929       932       925       924       928       929
       926       924       928       929       927       924       928       929
       928       929       932       933       928       929       932       934
       928       929       932       940       929       932       934       935
       929       932       940       941       929       932       940       942
       929       932       940       943       930       929       932       933
       930       929       932       934       930       929       932       940
       931       929       932       933       931       929       932       934
       931       929       932       940       932       934       935       936
       932       934       935       937       932       940       943       944
       933       932       934       935       933       932       940       941
       933       932       940       942       933       932       940       943
       934       932       940       941       934       932       940       942
       934       932       940       943       934       935       937       938
       934       935       937       939       934       935       937       949
       935       934       932       940       935       937       949       950
       935       937       949       951       935       937       949       952
       936       935       937       938       936       935       937       939
       936       935       937       949       937       949       952       953
       937       949       952       954       937       949       952       955
       938       937       949       950       938       937       949       951
       938       937       949       952       939       937       949       950
       939       937       949       951       939       937       949       952
       940       943       944       945       940       943       944       946
       941       940       943       944       942       940       943       944
       943       944       946       947       943       944       946       948
       943       944       946       996       944       946       996       997
       944       946       996       998       944       946       996       999
       945       944       946       947       945       944       946       948
       945       944       946       996       946       996       999      1000
       946       996       999      1001       946       996       999      1002
       947       946       996       997       947       946       996       998
       947       946       996       999       948       946       996       997
       948       946       996       998       948       946       996       999
       949       952       955       956       949       952       955       957
       949       952       955       958       950       949       952       953
       950       949       952       954       950       949       952       955
       951       949       952       953       951       949       952       954
       951       949       952       955       952       955       958       959
       952       955       958       960       952       955       958       961
       953       952       955       956       953       952       955       957
       953       952       955       958       954       952       955       956
       954       952       955       957       954       952       955       958
       955       958       961       962       955       958       961       963
       955       958       961       964       956       955       958       959
       956       955       958       960       956       955       958       961
       957       955       958       959       957       955       958       960
       957       955       958       961       958       961       964       965
       958       961       964       966       958       961       964       967
       959       958       961       962       959       958       961       963
       959       958       961       964       960       958       961       962
       960       958       961       963       960       958       961       964
       961       964       967       968       961       964       967       969
       962       961       964       965       962       961       964       966
       962       961       964       967       963       961       964       965
       963       961       964       966       963       961       964       967
       964       967       969       970       964       967       969       971
       965       964       967       968       965       964       967       969
       966       964       967       968       966       964       967       969
       967       969       971       972       967       969       971       973
       967       969       971       974       968       967       969       970
       968       967       969       971       969       971       974       975
       969       971       974       976       969       971       974       977
       970       969       971       972       970       969       971       973
       970       969       971       974       971       974       977       978
       971       974       977       979       971       974       977       980
       972       971       974       975       972       971       974       976
       972       971       974       977       973       971       974       975
       973       971       974       976       973       971       974       977
       974       977       980       981       974       977       980       982
       974       977       980       983       975       974       977       978
       975       974       977       979       975       974       977       980
       976       974       977       978       976       974       977       979
       976       974       977       980       977       980       983       984
       977       980       983       985       977       980       983       986
       978       977       980       981       978       977       980       982
       978       977       980       983       979       977       980       981
       979       977       980       982       979       977       980       983
       980       983       986       987       980       983       986       988
       980       983       986       989       981       980       983       984
       981       980       983       985       981       980       983       986
       982       980       983       984       982       980       983       985
       982       980       983       986       983       986       989       990
       983       986       989       991       983       986       989       992
       984       983       986       987       984       983       986       988
       984       983       986       989       985       983       986       987
       985       983       986       988       985       983       986       989
       986       989       992       993       986       989       992       994
       986       989       992       995       987       986       989       990
       987       986       989       991       987       986       989       992
       988       986       989       990       988       986       989       991
       988       986       989       992       990       989       992       993
       990       989       992       994       990       989       992       995
       991       989       992       993       991       989       992       994
       991       989       992       995       996       999      1002      1003
       996       999      1002      1004       996       999      1002      1005
       997       996       999      1000       997       996       999      1001
       997       996       999      1002       998       996       999      1000
       998       996       999      1001       998       996       999      1002
       999      1002      1005      1006       999      1002      1005      1007
       999      1002      1005      1008      1000       999      1002      1003
      1000       999      1002      1004      1000       999      1002      1005
      1001       999      1002      1003      1001       999      1002      1004
      1001       999      1002      1005      1002      1005      1008      1009
      1002      1005      1008      1010      1002      1005      1008      1011
      1003      1002      1005      1006      1003      1002      1005      1007
      1003      1002      1005      1008      1004      1002      1005      1006
      1004      1002      1005      1007      1004      1002      1005      1008
      1005      1008      1011      1012      1005      1008      1011      1013
      1005      1008      1011      1014      1006      1005      1008      1009
      1006      1005      1008      1010      1006      1005      1008      1011
      1007      1005      1008      1009      1007      1005      1008      1010
      1007      1005      1008      1011      1008      1011      1014      1015
      1008      1011      1014      1016      1009      1008      1011      1012
      1009      1008      1011      1013      1009      1008      1011      1014
      1010      1008      1011      1012      1010      1008      1011      1013
      1010      1008      1011      1014      1011      1014      1016      1017
      1011      1014      1016      1018      1012      1011      1014      1015
      1012      1011      1014      1016      1013      1011      1014      1015
      1013      1011      1014      1016      1014      1016      1018      1019
      1014      1016      1018      1020      1014      1016      1018      1021
      1015      1014      1016      1017      1015      1014      1016      1018
      1016      1018      1021      1022      1016      1018      1021      1023
      1016      1018      1021      1024      1017      1016      1018      1019
      1017      1016      1018      1020      1017      1016      1018      1021
      1018      1021      1024      1025      1018      1021      1024      1026
      1018      1021      1024      1027      1019      1018      1021      1022
      1019      1018      1021      1023      1019      1018      1021      1024
      1020      1018      1021      1022      1020      1018      1021      1023
      1020      1018      1021      1024      1021      1024      1027      1028
      1021      1024      1027      1029      1021      1024      1027      1030
      1022      1021      1024      1025      1022      1021      1024      1026
      1022      1021      1024      1027      1023      1021      1024      1025
      1023      1021      1024      1026      1023      1021      1024      1027
      1024      1027      1030      1031      1024      1027      1030      1032
      1024      1027      1030      1033      1025      1024      1027      1028
      1025      1024      1027      1029      1025      1024      1027      1030
      1026      1024      1027      1028      1026      1024      1027      1029
      1026      1024      1027      1030      1027      1030      1033      1034
      1027      1030      1033      1035      1027      1030      1033      1036
      1028      1027      1030      1031      1028      1027      1030      1032
      1028      1027      1030      1033      1029      1027      1030      1031
      1029      1027      1030      1032      1029      1027      1030      1033
      1030      1033      1036      1037      1030      1033      1036      1038
      1030      1033      1036      1039      1031      1030      1033      1034
      1031      1030      1033      1035      1031      1030      1033      1036
      1032      1030      1033      1034      1032      1030      1033      1035
      1032      1030      1033      1036      1033      1036      1039      1040
      1033      1036      1039      1041      1033      1036      1039      1042
      1034      1033      1036      1037      1034      1033      1036      1038
      1034      1033      1036      1039      1035      1033      1036      1037
      1035      1033      1036      1038      1035      1033      1036      1039
      1037      1036      1039      1040      1037      1036      1039      1041
      1037      1036      1039      1042      1038      1036      1039      1040
      1038      1036      1039      1041      1038      1036      1039      1042
      1043      1047      1050      1051      1043      1047      1050      1052
      1043      1047      1050      1057      1044      1043      1047      1048
      1044      1043      1047      1049      1044      1043      1047      1050
      1045      1043      1047      1048      1045      1043      1047      1049
      1045      1043      1047      1050      1046      1043      1047      1048
      1046      1043      1047      1049      1046      1043      1047      1050
      1047      1050      1057      1053      1048      1047      1050      1051
      1048      1047      1050      1052      1048      1047      1050      1057
      1049      1047      1050      1051      1049      1047      1050      1052
      1049      1047      1050      1057      1050      1057      1053      1054
      1050      1057      1053      1055      1050      1057      1053      1056
      1051      1050      1057      1053      1052      1050      1057      1053
      1053      1056      1058      1059      1053      1056      1058      1060
      1053      1056      1058      1061      1054      1053      1056      1058
      1055      1053      1056      1058      1056      1058      1061      1062
      1056      1058      1061      1063      1056      1058      1061      1069
      1057      1053      1056      1058      1058      1061      1063      1064
      1058      1061      1069      1070      1058      1061      1069      1071
      1058      1061      1069      1072      1059      1058      1061      1062
      1059      1058      1061      1063      1059      1058      1061      1069
      1060      1058      1061      1062      1060      1058      1061      1063
      1060      1058      1061      1069      1061      1063      1064      1065
      1061      1063      1064      1066      1061      1069      1072      1073
      1062      1061      1063      1064      1062      1061      1069      1070
      1062      1061      1069      1071      1062      1061      1069      1072
      1063      1061      1069      1070      1063      1061      1069      1071
      1063      1061      1069      1072      1063      1064      1066      1067
      1063      1064      1066      1068      1063      1064      1066      1078
      1064      1063      1061      1069      1064      1066      1078      1079
      1064      1066      1078      1080      1064      1066      1078      1081
      1065      1064      1066      1067      1065      1064      1066      1068
      1065      1064      1066      1078      1066      1078      1081      1082
      1066      1078      1081      1083      1066      1078      1081      1084
      1067      1066      1078      1079      1067      1066      1078      1080
      1067      1066      1078      1081      1068      1066      1078      1079
      1068      1066      1078      1080      1068      1066      1078      1081
      1069      1072      1073      1074      1069      1072      1073      1075
      1070      1069      1072      1073      1071      1069      1072      1073
      1072      1073      1075      1076      1072      1073      1075      1077
      1072      1073      1075      1125      1073      1075      1125      1126
      1073      1075      1125      1127      1073      1075      1125      1128
      1074      1073      1075      1076      1074      1073      1075      1077
      1074      1073      1075      1125      1075      1125      1128      1129
      1075      1125      1128      1130      1075      1125      1128      1131
      1076      1075      1125      1126      1076      1075      1125      1127
      1076      1075      1125      1128      1077      1075      1125      1126
      1077      1075      1125      1127      1077      1075      1125      1128
      1078      1081      1084      1085      1078      1081      1084      1086
      1078      1081      1084      1087      1079      1078      1081      1082
      1079      1078      1081      1083      1079      1078      1081      1084
      1080      1078      1081      1082      1080      1078      1081      1083
      1080      1078      1081      1084      1081      1084      1087      1088
      1081      1084      1087      1089      1081      1084      1087      1090
      1082      1081      1084      1085      1082      1081      1084      1086
      1082      1081      1084      1087      1083      1081      1084      1085
      1083      1081      1084      1086      1083      1081      1084      1087
      1084      1087      1090      1091      1084      1087      1090      1092
      1084      1087      1090      1093      1085      1084      1087      1088
      1085      1084      1087      1089      1085      1084      1087      1090
      1086      1084      1087      1088      1086      1084      1087      1089
      1086      1084      1087      1090      1087      1090      1093      1094
      1087      1090      1093      1095      1087      1090      1093      1096
      1088      1087      1090      1091      1088      1087      1090      1092
      1088      1087      1090      1093      1089      1087      1090      1091
      1089      1087      1090      1092      1089      1087      1090      1093
      1090      1093      1096      1097      1090      1093      1096      1098
      1091      1090      1093      1094      1091      1090      1093      1095
      1091      1090      1093      1096      1092      1090      1093      1094
      1092      1090      1093      1095      1092      1090      1093      1096
      1093      1096      1098      1099      1093      1096      1098      1100
      1094      1093      1096      1097      1094      1093      1096      1098
      1095      1093      1096      1097      1095      1093      1096      1098
      1096      1098      1100      1101      1096      1098      1100      1102
      1096      1098      1100      1103      1097      1096      1098      1099
      1097      1096      1098      1100      1098      1100      1103      1104
      1098      1100      1103      1105      1098      1100      1103      1106
      1099      1098      1100      1101      1099      1098      1100      1102
      1099      1098      1100      1103      1100      1103      1106      1107
      1100      1103      1106      1108      1100      1103      1106      1109
      1101      1100      1103      1104      1101      1100      1103      1105
      1101      1100      1103      1106      1102      1100      1103      1104
      1102      1100      1103      1105      1102      1100      1103      1106
      1103      1106      1109      1110      1103      1106      1109      1111
      1103      1106      1109      1112      1104      1103      1106      1107
      1104      1103      1106      1108      1104      1103      1106      1109
      1105      1103      1106      1107      1105      1103      1106      1108
      1105      1103      1106      1109      1106      1109      1112      1113
      1106      1109      1112      1114      1106      1109      1112      1115
      1107      1106      1109      1110      1107      1106      1109      1111
      1107      1106      1109      1112      1108      1106      1109      1110
      1108      1106      1109      1111      1108      1106      1109      1112
      1109      1112      1115      1116      1109      1112      1115      1117
      1109      1112      1115      1118      1110      1109      1112      1113
      1110      1109      1112      1114      1110      1109      1112      1115
      1111      1109      1112      1113      1111      1109      1112      1114
      1111      1109      1112      1115      1112      1115      1118      1119
      1112      1115      1118      1120      1112      1115      1118      1121
      1113      1112      1115      1116      1113      1112      1115      1117
      1113      1112      1115      1118      1114      1112      1115      1116
      1114      1112      1115      1117      1114      1112      1115      1118
      1115      1118      1121      1122      1115      1118      1121      1123
      1115      1118      1121      1124      1116      1115      1118      1119
      1116      1115      1118      1120      1116      1115      1118      1121
      1117      1115      1118      1119      1117      1115      1118      1120
      1117      1115      1118      1121      1119      1118      1121      1122
      1119      1118      1121      1123      1119      1118      1121      1124
      1120      1118      1121      1122      1120      1118      1121      1123
      1120      1118      1121      1124      1125      1128      1131      1132
      1125      1128      1131      1133      1125      1128      1131      1134
      1126      1125      1128      1129      1126      1125      1128      1130
      1126      1125      1128      1131      1127      1125      1128      1129
      1127      1125      1128      1130      1127      1125      1128      1131
      1128      1131      1134      1135      1128      1131      1134      1136
      1128      1131      1134      1137      1129      1128      1131      1132
      1129      1128      1131      1133      1129      1128      1131      1134
      1130      1128      1131      1132      1130      1128      1131      1133
      1130      1128      1131      1134      1131      1134      1137      1138
      1131      1134      1137      1139      1131      1134      1137      1140
      1132      1131      1134      1135      1132      1131      1134      1136
      1132      1131      1134      1137      1133      1131      1134      1135
      1133      1131      1134      1136      1133      1131      1134      1137
      1134      1137      1140      1141      1134      1137      1140      1142
      1134      1137      1140      1143      1135      1134      1137      1138
      1135      1134      1137      1139      1135      1134      1137      1140
      1136      1134      1137      1138      1136      1134      1137      1139
      1136      1134      1137      1140      1137      1140      1143      1144
      1137      1140      1143      1145      1138      1137      1140      1141
      1138      1137      1140      1142      1138      1137      1140      1143
      1139      1137      1140      1141      1139      1137      1140      1142
      1139      1137      1140      1143      1140      1143      1145      1146
      1140      1143      1145      1147      1141      1140      1143      1144
      1141      1140      1143      1145      1142      1140      1143      1144
      1142      1140      1143      1145      1143      1145      1147      1148
      1143      1145      1147      1149      1143      1145      1147      1150
      1144      1143      1145      1146      1144      1143      1145      1147
      1145      1147      1150      1151      1145      1147      1150      1152
      1145      1147      1150      1153      1146      1145      1147      1148
      1146      1145      1147      1149      1146      1145      1147      1150
      1147      1150      1153      1154      1147      1150      1153      1155
      1147      1150      1153      1156      1148      1147      1150      1151
      1148      1147      1150      1152      1148      1147      1150      1153
      1149      1147      1150      1151      1149      1147      1150      1152
      1149      1147      1150      1153      1150      1153      1156      1157
      1150      1153      1156      1158      1150      1153      1156      1159
      1151      1150      1153      1154      1151      1150      1153      1155
      1151      1150      1153      1156      1152      1150      1153      1154
      1152      1150      1153      1155      1152      1150      1153      1156
      1153      1156      1159      1160      1153      1156      1159      1161
      1153      1156      1159      1162      1154      1153      1156      1157
      1154      1153      1156      1158      1154      1153      1156      1159
      1155      1153      1156      1157      1155      1153      1156      1158
      1155      1153      1156      1159      1156      1159      1162      1163
      1156      1159      1162      1164      1156      1159      1162      1165
      1157      1156      1159      1160      1157      1156      1159      1161
      1157      1156      1159      1162      1158      1156      1159      1160
      1158      1156      1159      1161      1158      1156      1159      1162
      1159      1162      1165      1166      1159      1162      1165      1167
      1159      1162      1165      1168      1160      1159      1162      1163
      1160      1159      1162      1164      1160      1159      1162      1165
      1161      1159      1162      1163      1161      1159      1162      1164
      1161      1159      1162      1165      1162      1165      1168      1169
      1162      1165      1168      1170      1162      1165      1168      1171
      1163      1162      1165      1166      1163      1162      1165      1167
      1163      1162      1165      1168      1164      1162      1165      1166
      1164      1162      1165      1167      1164      1162      1165      1168
      1166      1165      1168      1169      1166      1165      1168      1170
      1166      1165      1168      1171      1167      1165      1168      1169
      1167      1165      1168      1170      1167      1165      1168      1171
      1172      1176      1179      1180      1172      1176      1179      1210
      1172      1218      1215      1210      1172      1218      1215      1216
      1172      1218      1215      1217      1173      1172      1174      1175
      1173      1172      1176      1177      1173      1172      1176      1178
      1173      1172      1176      1179      1173      1172      1218      1215
      1173      1172      1218      1219      1173      1172      1218      1220
      1174      1172      1176      1177      1174      1172      1176      1178
      1174      1172      1176      1179      1174      1172      1218      1215
      1174      1172      1218      1219      1174      1172      1218      1220
      1175      1174      1172      1176      1175      1174      1172      1218
      1176      1172      1218      1215      1176      1172      1218      1219
      1176      1172      1218      1220      1176      1179      1180      1181
      1176      1179      1180      1182      1176      1179      1210      1208
      1176      1179      1210      1211      1176      1179      1210      1215
      1177      1176      1172      1218      1177      1176      1179      1180
      1177      1176      1179      1210      1178      1176      1172      1218
      1178      1176      1179      1180      1178      1176      1179      1210
      1179      1176      1172      1218      1179      1180      1182      1183
      1179      1180      1182      1184      1179      1180      1182      1185
      1179      1210      1208      1185      1179      1210      1208      1205
      1179      1210      1208      1209      1179      1210      1211      1212
      1179      1210      1211      1213      1179      1210      1211      1214
      1179      1210      1215      1216      1179      1210      1215      1217
      1179      1210      1215      1218      1180      1179      1210      1208
      1180      1179      1210      1211      1180      1179      1210      1215
      1180      1182      1185      1186      1180      1182      1185      1187
      1180      1182      1185      1208      1181      1180      1179      1210
      1181      1180      1182      1183      1181      1180      1182      1184
      1181      1180      1182      1185      1182      1180      1179      1210
      1182      1185      1187      1188      1182      1185      1187      1189
      1182      1185      1187      1197      1182      1185      1208      1205
      1182      1185      1208      1209      1182      1185      1208      1210
      1183      1182      1185      1186      1183      1182      1185      1187
      1183      1182      1185      1208      1184      1182      1185      1186
      1184      1182      1185      1187      1184      1182      1185      1208
      1185      1187      1189      1190      1185      1187      1189      1191
      1185      1187      1189      1192      1185      1187      1197      1195
      1185      1187      1197      1198      1185      1187      1197      1202
      1185      1208      1205      1202      1185      1208      1205      1206
      1185      1208      1205      1207      1185      1208      1210      1211
      1185      1208      1210      1215      1186      1185      1187      1188
      1186      1185      1187      1189      1186      1185      1187      1197
      1186      1185      1208      1205      1186      1185      1208      1209
      1186      1185      1208      1210      1187      1185      1208      1205
      1187      1185      1208      1209      1187      1185      1208      1210
      1187      1189      1192      1193      1187      1189      1192      1194
      1187      1189      1192      1195      1187      1197      1195      1192
      1187      1197      1195      1196      1187      1197      1195      1221
      1187      1197      1198      1199      1187      1197      1198      1200
      1187      1197      1198      1201      1187      1197      1202      1203
      1187      1197      1202      1204      1187      1197      1202      1205
      1188      1187      1185      1208      1188      1187      1189      1190
      1188      1187      1189      1191      1188      1187      1189      1192
      1188      1187      1197      1195      1188      1187      1197      1198
      1188      1187      1197      1202      1189      1187      1185      1208
      1189      1187      1197      1195      1189      1187      1197      1198
      1189      1187      1197      1202      1189      1192      1195      1196
      1189      1192      1195      1197      1189      1192      1195      1221
      1190      1189      1187      1197      1190      1189      1192      1193
      1190      1189      1192      1194      1190      1189      1192      1195
      1191      1189      1187      1197      1191      1189      1192      1193
      1191      1189      1192      1194      1191      1189      1192      1195
      1192      1189      1187      1197      1192      1195      1197      1198
      1192      1195      1197      1202      1192      1195      1221      1222
      1192      1195      1221      1223      1192      1195      1221      1227
      1193      1192      1195      1196      1193      1192      1195      1197
      1193      1192      1195      1221      1194      1192      1195      1196
      1194      1192      1195      1197      1194      1192      1195      1221
      1195      1197      1198      1199      1195      1197      1198      1200
      1195      1197      1198      1201      1195      1197      1202      1203
      1195      1197      1202      1204      1195      1197      1202      1205
      1195      1221      1223      1224      1195      1221      1223      1225
      1195      1221      1223      1226      1195      1221      1227      1228
      1195      1221      1227      1229      1195      1221      1227      1230
      1196      1195      1197      1198      1196      1195      1197      1202
      1196      1195      1221      1222      1196      1195      1221      1223
      1196      1195      1221      1227      1197      1187      1185      1208
      1197      1195      1221      1222      1197      1195      1221      1223
      1197      1195      1221      1227      1197      1202      1205      1206
      1197      1202      1205      1207      1197      1202      1205      1208
      1198      1197      1195      1221      1198      1197      1202      1203
      1198      1197      1202      1204      1198      1197      1202      1205
      1199      1198      1197      1202      1200      1198      1197      1202
      1201      1198      1197      1202      1202      1197      1195      1221
      1202      1205      1208      1209      1202      1205      1208      1210
      1203      1202      1205      1206      1203      1202      1205      1207
      1203      1202      1205      1208      1204      1202      1205      1206
      1204      1202      1205      1207      1204      1202      1205      1208
      1205      1208      1210      1211      1205      1208      1210      1215
      1206      1205      1208      1209      1206      1205      1208      1210
      1207      1205      1208      1209      1207      1205      1208      1210
      1208      1210      1211      1212      1208      1210      1211      1213
      1208      1210      1211      1214      1208      1210      1215      1216
      1208      1210      1215      1217      1208      1210      1215      1218
      1209      1208      1210      1211      1209      1208      1210      1215
      1210      1215      1218      1219      1210      1215      1218      1220
      1211      1210      1215      1216      1211      1210      1215      1217
      1211      1210      1215      1218      1212      1211      1210      1215
      1213      1211      1210      1215      1214      1211      1210      1215
      1216      1215      1218      1219      1216      1215      1218      1220
      1217      1215      1218      1219      1217      1215      1218      1220
      1221      1227      1230      1231      1221      1227      1230      1232
      1221      1227      1230      1233      1222      1221      1223      1224
      1222      1221      1223      1225      1222      1221      1223      1226
      1222      1221      1227      1228      1222      1221      1227      1229
      1222      1221      1227      1230      1223      1221      1227      1228
      1223      1221      1227      1229      1223      1221      1227      1230
      1224      1223      1221      1227      1225      1223      1221      1227
      1226      1223      1221      1227      1227      1230      1233      1234
      1227      1230      1233      1235      1227      1230      1233      1236
      1228      1227      1230      1231      1228      1227      1230      1232
      1228      1227      1230      1233      1229      1227      1230      1231
      1229      1227      1230      1232      1229      1227      1230      1233
      1230      1233      1236      1237      1230      1233      1236      1238
      1230      1233      1236      1242      1231      1230      1233      1234
      1231      1230      1233      1235      1231      1230      1233      1236
      1232      1230      1233      1234      1232      1230      1233      1235
      1232      1230      1233      1236      1233      1236      1238      1239
      1233      1236      1238      1240      1233      1236      1238      1241
      1233      1236      1242      1243      1233      1236      1242      1244
      1233      1236      1242      1245      1234      1233      1236      1237
      1234      1233      1236      1238      1234      1233      1236      1242
      1235      1233      1236      1237      1235      1233      1236      1238
      1235      1233      1236      1242      1237      1236      1238      1239
      1237      1236      1238      1240      1237      1236      1238      1241
      1237      1236      1242      1243      1237      1236      1242      1244
      1237      1236      1242      1245      1238      1236      1242      1243
      1238      1236      1242      1244      1238      1236      1242      1245
      1239      1238      1236      1242      1240      1238      1236      1242
      1241      1238      1236      1242      1246      1259      1262      1263
      1246      1259      1262      1264      1246      1259      1262      1269
      1247      1246      1251      1252      1247      1246      1251      1253
      1247      1246      1251      1254      1247      1246      1255      1256
      1247      1246      1255      1257      1247      1246      1255      1258
      1247      1246      1259      1260      1247      1246      1259      1261
      1247      1246      1259      1262      1248      1247      1246      1251
      1248      1247      1246      1255      1248      1247      1246      1259
      1249      1247      1246      1251      1249      1247      1246      1255
      1249      1247      1246      1259      1250      1247      1246      1251
      1250      1247      1246      1255      1250      1247      1246      1259
      1251      1246      1255      1256      1251      1246      1255      1257
      1251      1246      1255      1258      1251      1246      1259      1260
      1251      1246      1259      1261      1251      1246      1259      1262
      1252      1251      1246      1255      1252      1251      1246      1259
      1253      1251      1246      1255      1253      1251      1246      1259
      1254      1251      1246      1255      1254      1251      1246      1259
      1255      1246      1259      1260      1255      1246      1259      1261
      1255      1246      1259      1262      1256      1255      1246      1259
      1257      1255      1246      1259      1258      1255      1246      1259
      1259      1262      1269      1265      1260      1259      1262      1263
      1260      1259      1262      1264      1260      1259      1262      1269
      1261      1259      1262      1263      1261      1259      1262      1264
      1261      1259      1262      1269      1262      1269      1265      1266
      1262      1269      1265      1267      1262      1269      1265      1268
      1263      1262      1269      1265      1264      1262      1269      1265
      1265      1268      1270      1271      1265      1268      1270      1272
      1265      1268      1270      1275      1266      1265      1268      1270
      1267      1265      1268      1270      1268      1270      1275      1273
      1268      1270      1275      1276      1268      1270      1275      1277
      1269      1265      1268      1270      1270      1275      1273      1274
      1270      1275      1273      1325      1270      1275      1277      1278
      1270      1275      1277      1279      1270      1275      1277      1281
      1271      1270      1275      1273      1271      1270      1275      1276
      1271      1270      1275      1277      1272      1270      1275      1273
      1272      1270      1275      1276      1272      1270      1275      1277
      1273      1275      1277      1278      1273      1275      1277      1279
      1273      1275      1277      1281      1273      1325      1327      1328
      1273      1325      1327      1329      1273      1325      1327      1330
      1274      1273      1275      1276      1274      1273      1275      1277
      1274      1273      1325      1326      1274      1273      1325      1327
      1275      1273      1325      1326      1275      1273      1325      1327
      1275      1277      1279      1280      1275      1277      1281      1282
      1275      1277      1281      1283      1276      1275      1273      1325
      1276      1275      1277      1278      1276      1275      1277      1279
      1276      1275      1277      1281      1277      1275      1273      1325
      1277      1281      1283      1284      1277      1281      1283      1285
      1278      1277      1279      1280      1278      1277      1281      1282
      1278      1277      1281      1283      1279      1277      1281      1282
      1279      1277      1281      1283      1280      1279      1277      1281
      1281      1283      1285      1286      1281      1283      1285      1287
      1281      1283      1285      1288      1282      1281      1283      1284
      1282      1281      1283      1285      1283      1285      1288      1289
      1283      1285      1288      1290      1283      1285      1288      1291
      1284      1283      1285      1286      1284      1283      1285      1287
      1284      1283      1285      1288      1285      1288      1291      1292
      1285      1288      1291      1293      1285      1288      1291      1294
      1286      1285      1288      1289      1286      1285      1288      1290
      1286      1285      1288      1291      1287      1285      1288      1289
      1287      1285      1288      1290      1287      1285      1288      1291
      1288      1291      1294      1295      1288      1291      1294      1296
      1288      1291      1294      1297      1289      1288      1291      1292
      1289      1288      1291      1293      1289      1288      1291      1294
      1290      1288      1291      1292      1290      1288      1291      1293
      1290      1288      1291      1294      1291      1294      1297      1298
      1291      1294      1297      1299      1291      1294      1297      1300
      1292      1291      1294      1295      1292      1291      1294      1296
      1292      1291      1294      1297      1293      1291      1294      1295
      1293      1291      1294      1296      1293      1291      1294      1297
      1294      1297      1300      1301      1294      1297      1300      1302
      1294      1297      1300      1303      1295      1294      1297      1298
      1295      1294      1297      1299      1295      1294      1297      1300
      1296      1294      1297      1298      1296      1294      1297      1299
      1296      1294      1297      1300      1297      1300      1303      1304
      1297      1300      1303      1305      1297      1300      1303      1306
      1298      1297      1300      1301      1298      1297      1300      1302
      1298      1297      1300      1303      1299      1297      1300      1301
      1299      1297      1300      1302      1299      1297      1300      1303
      1300      1303      1306      1307      1300      1303      1306      1308
      1300      1303      1306      1309      1301      1300      1303      1304
      1301      1300      1303      1305      1301      1300      1303      1306
      1302      1300      1303      1304      1302      1300      1303      1305
      1302      1300      1303      1306      1303      1306      1309      1310
      1303      1306      1309      1311      1303      1306      1309      1312
      1304      1303      1306      1307      1304      1303      1306      1308
      1304      1303      1306      1309      1305      1303      1306      1307
      1305      1303      1306      1308      1305      1303      1306      1309
      1306      1309      1312      1313      1306      1309      1312      1314
      1306      1309      1312      1315      1307      1306      1309      1310
      1307      1306      1309      1311      1307      1306      1309      1312
      1308      1306      1309      1310      1308      1306      1309      1311
      1308      1306      1309      1312      1309      1312      1315      1316
      1309      1312      1315      1317      1309      1312      1315      1318
      1310      1309      1312      1313      1310      1309      1312      1314
      1310      1309      1312      1315      1311      1309      1312      1313
      1311      1309      1312      1314      1311      1309      1312      1315
      1312      1315      1318      1319      1312      1315      1318      1320
      1312      1315      1318      1321      1313      1312      1315      1316
      1313      1312      1315      1317      1313      1312      1315      1318
      1314      1312      1315      1316      1314      1312      1315      1317
      1314      1312      1315      1318      1315      1318      1321      1322
      1315      1318      1321      1323      1315      1318      1321      1324
      1316      1315      1318      1319      1316      1315      1318      1320
      1316      1315      1318      1321      1317      1315      1318      1319
      1317      1315      1318      1320      1317      1315      1318      1321
      1319      1318      1321      1322      1319      1318      1321      1323
      1319      1318      1321      1324      1320      1318      1321      1322
      1320      1318      1321      1323      1320      1318      1321      1324
      1325      1327      1330      1331      1325      1327      1330      1332
      1325      1327      1330      1333      1326      1325      1327      1328
      1326      1325      1327      1329      1326      1325      1327      1330
      1327      1330      1333      1334      1327      1330      1333      1335
      1327      1330      1333      1336      1328      1327      1330      1331
      1328      1327      1330      1332      1328      1327      1330      1333
      1329      1327      1330      1331      1329      1327      1330      1332
      1329      1327      1330      1333      1330      1333      1336      1337
      1330      1333      1336      1338      1330      1333      1336      1339
      1331      1330      1333      1334      1331      1330      1333      1335
      1331      1330      1333      1336      1332      1330      1333      1334
      1332      1330      1333      1335      1332      1330      1333      1336
      1333      1336      1339      1340      1333      1336      1339      1341
      1333      1336      1339      1342      1334      1333      1336      1337
      1334      1333      1336      1338      1334      1333      1336      1339
      1335      1333      1336      1337      1335      1333      1336      1338
      1335      1333      1336      1339      1336      1339      1342      1343
      1336      1339      1342      1344      1336      1339      1342      1345
      1337      1336      1339      1340      1337      1336      1339      1341
      1337      1336      1339      1342      1338      1336      1339      1340
      1338      1336      1339      1341      1338      1336      1339      1342
      1339      1342      1345      1346      1339      1342      1345      1347
      1339      1342      1345      1348      1340      1339      1342      1343
      1340      1339      1342      1344      1340      1339      1342      1345
      1341      1339      1342      1343      1341      1339      1342      1344
      1341      1339      1342      1345      1342      1345      1348      1349
      1342      1345      1348      1350      1342      1345      1348      1351
      1343      1342      1345      1346      1343      1342      1345      1347
      1343      1342      1345      1348      1344      1342      1345      1346
      1344      1342      1345      1347      1344      1342      1345      1348
      1345      1348      1351      1352      1345      1348      1351      1353
      1345      1348      1351      1354      1346      1345      1348      1349
      1346      1345      1348      1350      1346      1345      1348      1351
      1347      1345      1348      1349      1347      1345      1348      1350
      1347      1345      1348      1351      1348      1351      1354      1355
      1348      1351      1354      1356      1348      1351      1354      1357
      1349      1348      1351      1352      1349      1348      1351      1353
      1349      1348      1351      1354      1350      1348      1351      1352
      1350      1348      1351      1353      1350      1348      1351      1354
      1351      1354      1357      1358      1351      1354      1357      1359
      1351      1354      1357      1360      1352      1351      1354      1355
      1352      1351      1354      1356      1352      1351      1354      1357
      1353      1351      1354      1355      1353      1351      1354      1356
      1353      1351      1354      1357      1354      1357      1360      1361
      1354      1357      1360      1362      1354      1357      1360      1363
      1355      1354      1357      1358      1355      1354      1357      1359
      1355      1354      1357      1360      1356      1354      1357      1358
      1356      1354      1357      1359      1356      1354      1357      1360
      1357      1360      1363      1364      1357      1360      1363      1365
      1357      1360      1363      1366      1358      1357      1360      1361
      1358      1357      1360      1362      1358      1357      1360      1363
      1359      1357      1360      1361      1359      1357      1360      1362
      1359      1357      1360      1363      1360      1363      1366      1367
      1360      1363      1366      1368      1360      1363      1366      1369
      1361      1360      1363      1364      1361      1360      1363      1365
      1361      1360      1363      1366      1362      1360      1363      1364
      1362      1360      1363      1365      1362      1360      1363      1366
      1363      1366      1369      1370      1363      1366      1369      1371
      1363      1366      1369      1372      1364      1363      1366      1367
      1364      1363      1366      1368      1364      1363      1366      1369
      1365      1363      1366      1367      1365      1363      1366      1368
      1365      1363      1366      1369      1366      1369      1372      1373
      1366      1369      1372      1374      1366      1369      1372      1375
      1367      1366      1369      1370      1367      1366      1369      1371
      1367      1366      1369      1372      1368      1366      1369      1370
      1368      1366      1369      1371      1368      1366      1369      1372
      1369      1372      1375      1376      1369      1372      1375      1377
      1369      1372      1375      1378      1370      1369      1372      1373
      1370      1369      1372      1374      1370      1369      1372      1375
      1371      1369      1372      1373      1371      1369      1372      1374
      1371      1369      1372      1375      1372      1375      1378      1379
      1372      1375      1378      1380      1372      1375      1378      1381
      1373      1372      1375      1376      1373      1372      1375      1377
      1373      1372      1375      1378      1374      1372      1375      1376
      1374      1372      1375      1377      1374      1372      1375      1378
      1375      1378      1381      1382      1375      1378      1381      1383
      1375      1378      1381      1384      1376      1375      1378      1379
      1376      1375      1378      1380      1376      1375      1378      1381
      1377      1375      1378      1379      1377      1375      1378      1380
      1377      1375      1378      1381      1378      1381      1384      1385
      1378      1381      1384      1386      1378      1381      1384      1387
      1379      1378      1381      1382      1379      1378      1381      1383
      1379      1378      1381      1384      1380      1378      1381      1382
      1380      1378      1381      1383      1380      1378      1381      1384
      1381      1384      1387      1388      1381      1384      1387      1389
      1381      1384      1387      1390      1382      1381      1384      1385
      1382      1381      1384      1386      1382      1381      1384      1387
      1383      1381      1384      1385      1383      1381      1384      1386
      1383      1381      1384      1387      1384      1387      1390      1391
      1384      1387      1390      1392      1384      1387      1390      1393
      1385      1384      1387      1388      1385      1384      1387      1389
      1385      1384      1387      1390      1386      1384      1387      1388
      1386      1384      1387      1389      1386      1384      1387      1390
      1388      1387      1390      1391      1388      1387      1390      1392
      1388      1387      1390      1393      1389      1387      1390      1391
      1389      1387      1390      1392      1389      1387      1390      1393
      1394      1395      1410      1411      1394      1395      1410      1412
      1394      1395      1410      1416      1395      1394      1398      1399
      1395      1394      1398      1400      1395      1394      1398      1401
      1395      1394      1402      1403      1395      1394      1402      1404
      1395      1394      1402      1405      1395      1394      1406      1407
      1395      1394      1406      1408      1395      1394      1406      1409
      1395      1410      1416      1413      1396      1395      1394      1398
      1396      1395      1394      1402      1396      1395      1394      1406
      1396      1395      1410      1411      1396      1395      1410      1412
      1396      1395      1410      1416      1397      1395      1394      1398
      1397      1395      1394      1402      1397      1395      1394      1406
      1397      1395      1410      1411      1397      1395      1410      1412
      1397      1395      1410      1416      1398      1394      1395      1410
      1398      1394      1402      1403      1398      1394      1402      1404
      1398      1394      1402      1405      1398      1394      1406      1407
      1398      1394      1406      1408      1398      1394      1406      1409
      1399      1398      1394      1402      1399      1398      1394      1406
      1400      1398      1394      1402      1400      1398      1394      1406
      1401      1398      1394      1402      1401      1398      1394      1406
      1402      1394      1395      1410      1402      1394      1406      1407
      1402      1394      1406      1408      1402      1394      1406      1409
      1403      1402      1394      1406      1404      1402      1394      1406
      1405      1402      1394      1406      1406      1394      1395      1410
      1410      1416      1413      1414      1410      1416      1413      1415
      1410      1416      1413      1417      1411      1410      1416      1413
      1412      1410      1416      1413      1413      1417      1418      1419
      1413      1417      1418      1420      1413      1417      1418      1421
      1414      1413      1417      1418      1415      1413      1417      1418
      1416      1413      1417      1418      1417      1418      1421      1422
      1417      1418      1421      1423      1417      1418      1421      1429
      1418      1421      1423      1424      1418      1421      1429      1430
      1418      1421      1429      1431      1418      1421      1429      1432
      1419      1418      1421      1422      1419      1418      1421      1423
      1419      1418      1421      1429      1420      1418      1421      1422
      1420      1418      1421      1423      1420      1418      1421      1429
      1421      1423      1424      1425      1421      1423      1424      1426
      1421      1429      1432      1433      1422      1421      1423      1424
      1422      1421      1429      1430      1422      1421      1429      1431
      1422      1421      1429      1432      1423      1421      1429      1430
      1423      1421      1429      1431      1423      1421      1429      1432
      1423      1424      1426      1427      1423      1424      1426      1428
      1423      1424      1426      1438      1424      1423      1421      1429
      1424      1426      1438      1439      1424      1426      1438      1440
      1424      1426      1438      1441      1425      1424      1426      1427
      1425      1424      1426      1428      1425      1424      1426      1438
      1426      1438      1441      1442      1426      1438      1441      1443
      1426      1438      1441      1444      1427      1426      1438      1439
      1427      1426      1438      1440      1427      1426      1438      1441
      1428      1426      1438      1439      1428      1426      1438      1440
      1428      1426      1438      1441      1429      1432      1433      1434
      1429      1432      1433      1435      1430      1429      1432      1433
      1431      1429      1432      1433      1432      1433      1435      1436
      1432      1433      1435      1437      1432      1433      1435      1485
      1433      1435      1485      1486      1433      1435      1485      1487
      1433      1435      1485      1488      1434      1433      1435      1436
      1434      1433      1435      1437      1434      1433      1435      1485
      1435      1485      1488      1489      1435      1485      1488      1490
      1435      1485      1488      1491      1436      1435      1485      1486
      1436      1435      1485      1487      1436      1435      1485      1488
      1437      1435      1485      1486      1437      1435      1485      1487
      1437      1435      1485      1488      1438      1441      1444      1445
      1438      1441      1444      1446      1438      1441      1444      1447
      1439      1438      1441      1442      1439      1438      1441      1443
      1439      1438      1441      1444      1440      1438      1441      1442
      1440      1438      1441      1443      1440      1438      1441      1444
      1441      1444      1447      1448      1441      1444      1447      1449
      1441      1444      1447      1450      1442      1441      1444      1445
      1442      1441      1444      1446      1442      1441      1444      1447
      1443      1441      1444      1445      1443      1441      1444      1446
      1443      1441      1444      1447      1444      1447      1450      1451
      1444      1447      1450      1452      1444      1447      1450      1453
      1445      1444      1447      1448      1445      1444      1447      1449
      1445      1444      1447      1450      1446      1444      1447      1448
      1446      1444      1447      1449      1446      1444      1447      1450
      1447      1450      1453      1454      1447      1450      1453      1455
      1447      1450      1453      1456      1448      1447      1450      1451
      1448      1447      1450      1452      1448      1447      1450      1453
      1449      1447      1450      1451      1449      1447      1450      1452
      1449      1447      1450      1453      1450      1453      1456      1457
      1450      1453      1456      1458      1451      1450      1453      1454
      1451      1450      1453      1455      1451      1450      1453      1456
      1452      1450      1453      1454      1452      1450      1453      1455
      1452      1450      1453      1456      1453      1456      1458      1459
      1453      1456      1458      1460      1454      1453      1456      1457
      1454      1453      1456      1458      1455      1453      1456      1457
      1455      1453      1456      1458      1456      1458      1460      1461
      1456      1458      1460      1462      1456      1458      1460      1463
      1457      1456      1458      1459      1457      1456      1458      1460
      1458      1460      1463      1464      1458      1460      1463      1465
      1458      1460      1463      1466      1459      1458      1460      1461
      1459      1458      1460      1462      1459      1458      1460      1463
      1460      1463      1466      1467      1460      1463      1466      1468
      1460      1463      1466      1469      1461      1460      1463      1464
      1461      1460      1463      1465      1461      1460      1463      1466
      1462      1460      1463      1464      1462      1460      1463      1465
      1462      1460      1463      1466      1463      1466      1469      1470
      1463      1466      1469      1471      1463      1466      1469      1472
      1464      1463      1466      1467      1464      1463      1466      1468
      1464      1463      1466      1469      1465      1463      1466      1467
      1465      1463      1466      1468      1465      1463      1466      1469
      1466      1469      1472      1473      1466      1469      1472      1474
      1466      1469      1472      1475      1467      1466      1469      1470
      1467      1466      1469      1471      1467      1466      1469      1472
      1468      1466      1469      1470      1468      1466      1469      1471
      1468      1466      1469      1472      1469      1472      1475      1476
      1469      1472      1475      1477      1469      1472      1475      1478
      1470      1469      1472      1473      1470      1469      1472      1474
      1470      1469      1472      1475      1471      1469      1472      1473
      1471      1469      1472      1474      1471      1469      1472      1475
      1472      1475      1478      1479      1472      1475      1478      1480
      1472      1475      1478      1481      1473      1472      1475      1476
      1473      1472      1475      1477      1473      1472      1475      1478
      1474      1472      1475      1476      1474      1472      1475      1477
      1474      1472      1475      1478      1475      1478      1481      1482
      1475      1478      1481      1483      1475      1478      1481      1484
      1476      1475      1478      1479      1476      1475      1478      1480
      1476      1475      1478      1481      1477      1475      1478      1479
      1477      1475      1478      1480      1477      1475      1478      1481
      1479      1478      1481      1482      1479      1478      1481      1483
      1479      1478      1481      1484      1480      1478      1481      1482
      1480      1478      1481      1483      1480      1478      1481      1484
      1485      1488      1491      1492      1485      1488      1491      1493
      1485      1488      1491      1494      1486      1485      1488      1489
      1486      1485      1488      1490      1486      1485      1488      1491
      1487      1485      1488      1489      1487      1485      1488      1490
      1487      1485      1488      1491      1488      1491      1494      1495
      1488      1491      1494      1496      1488      1491      1494      1497
      1489      1488      1491      1492      1489      1488      1491      1493
      1489      1488      1491      1494      1490      1488      1491      1492
      1490      1488      1491      1493      1490      1488      1491      1494
      1491      1494      1497      1498      1491      1494      1497      1499
      1491      1494      1497      1500      1492      1491      1494      1495
      1492      1491      1494      1496      1492      1491      1494      1497
      1493      1491      1494      1495      1493      1491      1494      1496
      1493      1491      1494      1497      1494      1497      1500      1501
      1494      1497      1500      1502      1494      1497      1500      1503
      1495      1494      1497      1498      1495      1494      1497      1499
      1495      1494      1497      1500      1496      1494      1497      1498
      1496      1494      1497      1499      1496      1494      1497      1500
      1497      1500      1503      1504      1497      1500      1503      1505
      1498      1497      1500      1501      1498      1497      1500      1502
      1498      1497      1500      1503      1499      1497      1500      1501
      1499      1497      1500      1502      1499      1497      1500      1503
      1500      1503      1505      1506      1500      1503      1505      1507
      1501      1500      1503      1504      1501      1500      1503      1505
      1502      1500      1503      1504      1502      1500      1503      1505
      1503      1505      1507      1508      1503      1505      1507      1509
      1503      1505      1507      1510      1504      1503      1505      1506
      1504      1503      1505      1507      1505      1507      1510      1511
      1505      1507      1510      1512      1505      1507      1510      1513
      1506      1505      1507      1508      1506      1505      1507      1509
      1506      1505      1507      1510      1507      1510      1513      1514
      1507      1510      1513      1515      1507      1510      1513      1516
      1508      1507      1510      1511      1508      1507      1510      1512
      1508      1507      1510      1513      1509      1507      1510      1511
      1509      1507      1510      1512      1509      1507      1510      1513
      1510      1513      1516      1517      1510      1513      1516      1518
      1510      1513      1516      1519      1511      1510      1513      1514
      1511      1510      1513      1515      1511      1510      1513      1516
      1512      1510      1513      1514      1512      1510      1513      1515
      1512      1510      1513      1516      1513      1516      1519      1520
      1513      1516      1519      1521      1513      1516      1519      1522
      1514      1513      1516      1517      1514      1513      1516      1518
      1514      1513      1516      1519      1515      1513      1516      1517
      1515      1513      1516      1518      1515      1513      1516      1519
      1516      1519      1522      1523      1516      1519      1522      1524
      1516      1519      1522      1525      1517      1516      1519      1520
      1517      1516      1519      1521      1517      1516      1519      1522
      1518      1516      1519      1520      1518      1516      1519      1521
      1518      1516      1519      1522      1519      1522      1525      1526
      1519      1522      1525      1527      1519      1522      1525      1528
      1520      1519      1522      1523      1520      1519      1522      1524
      1520      1519      1522      1525      1521      1519      1522      1523
      1521      1519      1522      1524      1521      1519      1522      1525
      1522      1525      1528      1529      1522      1525      1528      1530
      1522      1525      1528      1531      1523      1522      1525      1526
      1523      1522      1525      1527      1523      1522      1525      1528
      1524      1522      1525      1526      1524      1522      1525      1527
      1524      1522      1525      1528      1526      1525      1528      1529
      1526      1525      1528      1530      1526      1525      1528      1531
      1527      1525      1528      1529      1527      1525      1528      1530
      1527      1525      1528      1531      1532      1545      1548      1549
      1532      1545      1548      1550      1532      1545      1548      1555
      1533      1532      1537      1538      1533      1532      1537      1539
      1533      1532      1537      1540      1533      1532      1541      1542
      1533      1532      1541      1543      1533      1532      1541      1544
      1533      1532      1545      1546      1533      1532      1545      1547
      1533      1532      1545      1548      1534      1533      1532      1537
      1534      1533      1532      1541      1534      1533      1532      1545
      1535      1533      1532      1537      1535      1533      1532      1541
      1535      1533      1532      1545      1536      1533      1532      1537
      1536      1533      1532      1541      1536      1533      1532      1545
      1537      1532      1541      1542      1537      1532      1541      1543
      1537      1532      1541      1544      1537      1532      1545      1546
      1537      1532      1545      1547      1537      1532      1545      1548
      1538      1537      1532      1541      1538      1537      1532      1545
      1539      1537      1532      1541      1539      1537      1532      1545
      1540      1537      1532      1541      1540      1537      1532      1545
      1541      1532      1545      1546      1541      1532      1545      1547
      1541      1532      1545      1548      1542      1541      1532      1545
      1543      1541      1532      1545      1544      1541      1532      1545
      1545      1548      1555      1551      1546      1545      1548      1549
      1546      1545      1548      1550      1546      1545      1548      1555
      1547      1545      1548      1549      1547      1545      1548      1550
      1547      1545      1548      1555      1548      1555      1551      1552
      1548      1555      1551      1553      1548      1555      1551      1554
      1549      1548      1555      1551      1550      1548      1555      1551
      1551      1554      1556      1557      1551      1554      1556      1558
      1551      1554      1556      1561      1552      1551      1554      1556
      1553      1551      1554      1556      1554      1556      1561      1559
      1554      1556      1561      1562      1554      1556      1561      1563
      1555      1551      1554      1556      1556      1561      1559      1560
      1556      1561      1559      1611      1556      1561      1563      1564
      1556      1561      1563      1565      1556      1561      1563      1567
      1557      1556      1561      1559      1557      1556      1561      1562
      1557      1556      1561      1563      1558      1556      1561      1559
      1558      1556      1561      1562      1558      1556      1561      1563
      1559      1561      1563      1564      1559      1561      1563      1565
      1559      1561      1563      1567      1559      1611      1613      1614
      1559      1611      1613      1615      1559      1611      1613      1616
      1560      1559      1561      1562      1560      1559      1561      1563
      1560      1559      1611      1612      1560      1559      1611      1613
      1561      1559      1611      1612      1561      1559      1611      1613
      1561      1563      1565      1566      1561      1563      1567      1568
      1561      1563      1567      1569      1562      1561      1559      1611
      1562      1561      1563      1564      1562      1561      1563      1565
      1562      1561      1563      1567      1563      1561      1559      1611
      1563      1567      1569      1570      1563      1567      1569      1571
      1564      1563      1565      1566      1564      1563      1567      1568
      1564      1563      1567      1569      1565      1563      1567      1568
      1565      1563      1567      1569      1566      1565      1563      1567
      1567      1569      1571      1572      1567      1569      1571      1573
      1567      1569      1571      1574      1568      1567      1569      1570
      1568      1567      1569      1571      1569      1571      1574      1575
      1569      1571      1574      1576      1569      1571      1574      1577
      1570      1569      1571      1572      1570      1569      1571      1573
      1570      1569      1571      1574      1571      1574      1577      1578
      1571      1574      1577      1579      1571      1574      1577      1580
      1572      1571      1574      1575      1572      1571      1574      1576
      1572      1571      1574      1577      1573      1571      1574      1575
      1573      1571      1574      1576      1573      1571      1574      1577
      1574      1577      1580      1581      1574      1577      1580      1582
      1574      1577      1580      1583      1575      1574      1577      1578
      1575      1574      1577      1579      1575      1574      1577      1580
      1576      1574      1577      1578      1576      1574      1577      1579
      1576      1574      1577      1580      1577      1580      1583      1584
      1577      1580      1583      1585      1577      1580      1583      1586
      1578      1577      1580      1581      1578      1577      1580      1582
      1578      1577      1580      1583      1579      1577      1580      1581
      1579      1577      1580      1582      1579      1577      1580      1583
      1580      1583      1586      1587      1580      1583      1586      1588
      1580      1583      1586      1589      1581      1580      1583      1584
      1581      1580      1583      1585      1581      1580      1583      1586
      1582      1580      1583      1584      1582      1580      1583      1585
      1582      1580      1583      1586      1583      1586      1589      1590
      1583      1586      1589      1591      1583      1586      1589      1592
      1584      1583      1586      1587      1584      1583      1586      1588
      1584      1583      1586      1589      1585      1583      1586      1587
      1585      1583      1586      1588      1585      1583      1586      1589
      1586      1589      1592      1593      1586      1589      1592      1594
      1586      1589      1592      1595      1587      1586      1589      1590
      1587      1586      1589      1591      1587      1586      1589      1592
      1588      1586      1589      1590      1588      1586      1589      1591
      1588      1586      1589      1592      1589      1592      1595      1596
      1589      1592      1595      1597      1589      1592      1595      1598
      1590      1589      1592      1593      1590      1589      1592      1594
      1590      1589      1592      1595      1591      1589      1592      1593
      1591      1589      1592      1594      1591      1589      1592      1595
      1592      1595      1598      1599      1592      1595      1598      1600
      1592      1595      1598      1601      1593      1592      1595      1596
      1593      1592      1595      1597      1593      1592      1595      1598
      1594      1592      1595      1596      1594      1592      1595      1597
      1594      1592      1595      1598      1595      1598      1601      1602
      1595      1598      1601      1603      1595      1598      1601      1604
      1596      1595      1598      1599      1596      1595      1598      1600
      1596      1595      1598      1601      1597      1595      1598      1599
      1597      1595      1598      1600      1597      1595      1598      1601
      1598      1601      1604      1605      1598      1601      1604      1606
      1598      1601      1604      1607      1599      1598      1601      1602
      1599      1598      1601      1603      1599      1598      1601      1604
      1600      1598      1601      1602      1600      1598      1601      1603
      1600      1598      1601      1604      1601      1604      1607      1608
      1601      1604      1607      1609      1601      1604      1607      1610
      1602      1601      1604      1605      1602      1601      1604      1606
      1602      1601      1604      1607      1603      1601      1604      1605
      1603      1601      1604      1606      1603      1601      1604      1607
      1605      1604      1607      1608      1605      1604      1607      1609
      1605      1604      1607      1610      1606      1604      1607      1608
      1606      1604      1607      1609      1606      1604      1607      1610
      1611      1613      1616      1617      1611      1613      1616      1618
      1611      1613      1616      1619      1612      1611      1613      1614
      1612      1611      1613      1615      1612      1611      1613      1616
      1613      1616      1619      1620      1613      1616      1619      1621
      1613      1616      1619      1622      1614      1613      1616      1617
      1614      1613      1616      1618      1614      1613      1616      1619
      1615      1613      1616      1617      1615      1613      1616      1618
      1615      1613      1616      1619      1616      1619      1622      1623
      1616      1619      1622      1624      1616      1619      1622      1625
      1617      1616      1619      1620      1617      1616      1619      1621
      1617      1616      1619      1622      1618      1616      1619      1620
      1618      1616      1619      1621      1618      1616      1619      1622
      1619      1622      1625      1626      1619      1622      1625      1627
      1619      1622      1625      1628      1620      1619      1622      1623
      1620      1619      1622      1624      1620      1619      1622      1625
      1621      1619      1622      1623      1621      1619      1622      1624
      1621      1619      1622      1625      1622      1625      1628      1629
      1622      1625      1628      1630      1622      1625      1628      1631
      1623      1622      1625      1626      1623      1622      1625      1627
      1623      1622      1625      1628      1624      1622      1625      1626
      1624      1622      1625      1627      1624      1622      1625      1628
      1625      1628      1631      1632      1625      1628      1631      1633
      1625      1628      1631      1634      1626      1625      1628      1629
      1626      1625      1628      1630      1626      1625      1628      1631
      1627      1625      1628      1629      1627      1625      1628      1630
      1627      1625      1628      1631      1628      1631      1634      1635
      1628      1631      1634      1636      1628      1631      1634      1637
      1629      1628      1631      1632      1629      1628      1631      1633
      1629      1628      1631      1634      1630      1628      1631      1632
      1630      1628      1631      1633      1630      1628      1631      1634
      1631      1634      1637      1638      1631      1634      1637      1639
      1631      1634      1637      1640      1632      1631      1634      1635
      1632      1631      1634      1636      1632      1631      1634      1637
      1633      1631      1634      1635      1633      1631      1634      1636
      1633      1631      1634      1637      1634      1637      1640      1641
      1634      1637      1640      1642      1634      1637      1640      1643
      1635      1634      1637      1638      1635      1634      1637      1639
      1635      1634      1637      1640      1636      1634      1637      1638
      1636      1634      1637      1639      1636      1634      1637      1640
      1637      1640      1643      1644      1637      1640      1643      1645
      1637      1640      1643      1646      1638      1637      1640      1641
      1638      1637      1640      1642      1638      1637      1640      1643
      1639      1637      1640      1641      1639      1637      1640      1642
      1639      1637      1640      1643      1640      1643      1646      1647
      1640      1643      1646      1648      1640      1643      1646      1649
      1641      1640      1643      1644      1641      1640      1643      1645
      1641      1640      1643      1646      1642      1640      1643      1644
      1642      1640      1643      1645      1642      1640      1643      1646
      1643      1646      1649      1650      1643      1646      1649      1651
      1643      1646      1649      1652      1644      1643      1646      1647
      1644      1643      1646      1648      1644      1643      1646      1649
      1645      1643      1646      1647      1645      1643      1646      1648
      1645      1643      1646      1649      1646      1649      1652      1653
      1646      1649      1652      1654      1646      1649      1652      1655
      1647      1646      1649      1650      1647      1646      1649      1651
      1647      1646      1649      1652      1648      1646      1649      1650
      1648      1646      1649      1651      1648      1646      1649      1652
      1649      1652      1655      1656      1649      1652      1655      1657
      1649      1652      1655      1658      1650      1649      1652      1653
      1650      1649      1652      1654      1650      1649      1652      1655
      1651      1649      1652      1653      1651      1649      1652      1654
      1651      1649      1652      1655      1652      1655      1658      1659
      1652      1655      1658      1660      1652      1655      1658      1661
      1653      1652      1655      1656      1653      1652      1655      1657
      1653      1652      1655      1658      1654      1652      1655      1656
      1654      1652      1655      1657      1654      1652      1655      1658
      1655      1658      1661      1662      1655      1658      1661      1663
      1655      1658      1661      1664      1656      1655      1658      1659
      1656      1655      1658      1660      1656      1655      1658      1661
      1657      1655      1658      1659      1657      1655      1658      1660
      1657      1655      1658      1661      1658      1661      1664      1665
      1658      1661      1664      1666      1658      1661      1664      1667
      1659      1658      1661      1662      1659      1658      1661      1663
      1659      1658      1661      1664      1660      1658      1661      1662
      1660      1658      1661      1663      1660      1658      1661      1664
      1661      1664      1667      1668      1661      1664      1667      1669
      1661      1664      1667      1670      1662      1661      1664      1665
      1662      1661      1664      1666      1662      1661      1664      1667
      1663      1661      1664      1665      1663      1661      1664      1666
      1663      1661      1664      1667      1664      1667      1670      1671
      1664      1667      1670      1672      1664      1667      1670      1673
      1665      1664      1667      1668      1665      1664      1667      1669
      1665      1664      1667      1670      1666      1664      1667      1668
      1666      1664      1667      1669      1666      1664      1667      1670
      1667      1670      1673      1674      1667      1670      1673      1675
      1667      1670      1673      1676      1668      1667      1670      1671
      1668      1667      1670      1672      1668      1667      1670      1673
      1669      1667      1670      1671      1669      1667      1670      1672
      1669      1667      1670      1673      1670      1673      1676      1677
      1670      1673      1676      1678      1670      1673      1676      1679
      1671      1670      1673      1674      1671      1670      1673      1675
      1671      1670      1673      1676      1672      1670      1673      1674
      1672      1670      1673      1675      1672      1670      1673      1676
      1674      1673      1676      1677      1674      1673      1676      1678
      1674      1673      1676      1679      1675      1673      1676      1677
      1675      1673      1676      1678      1675      1673      1676      1679
      1680      1684      1687      1688      1680      1684      1687      1718
      1680      1726      1723      1718      1680      1726      1723      1724
      1680      1726      1723      1725      1681      1680      1682      1683
      1681      1680      1684      1685      1681      1680      1684      1686
      1681      1680      1684      1687      1681      1680      1726      1723
      1681      1680      1726      1727      1681      1680      1726      1728
      1682      1680      1684      1685      1682      1680      1684      1686
      1682      1680      1684      1687      1682      1680      1726      1723
      1682      1680      1726      1727      1682      1680      1726      1728
      1683      1682      1680      1684      1683      1682      1680      1726
      1684      1680      1726      1723      1684      1680      1726      1727
      1684      1680      1726      1728      1684      1687      1688      1689
      1684      1687      1688      1690      1684      1687      1718      1716
      1684      1687      1718      1719      1684      1687      1718      1723
      1685      1684      1680      1726      1685      1684      1687      1688
      1685      1684      1687      1718      1686      1684      1680      1726
      1686      1684      1687      1688      1686      1684      1687      1718
      1687      1684      1680      1726      1687      1688      1690      1691
      1687      1688      1690      1692      1687      1688      1690      1693
      1687      1718      1716      1693      1687      1718      1716      1713
      1687      1718      1716      1717      1687      1718      1719      1720
      1687      1718      1719      1721      1687      1718      1719      1722
      1687      1718      1723      1724      1687      1718      1723      1725
      1687      1718      1723      1726      1688      1687      1718      1716
      1688      1687      1718      1719      1688      1687      1718      1723
      1688      1690      1693      1694      1688      1690      1693      1695
      1688      1690      1693      1716      1689      1688      1687      1718
      1689      1688      1690      1691      1689      1688      1690      1692
      1689      1688      1690      1693      1690      1688      1687      1718
      1690      1693      1695      1696      1690      1693      1695      1697
      1690      1693      1695      1705      1690      1693      1716      1713
      1690      1693      1716      1717      1690      1693      1716      1718
      1691      1690      1693      1694      1691      1690      1693      1695
      1691      1690      1693      1716      1692      1690      1693      1694
      1692      1690      1693      1695      1692      1690      1693      1716
      1693      1695      1697      1698      1693      1695      1697      1699
      1693      1695      1697      1700      1693      1695      1705      1703
      1693      1695      1705      1706      1693      1695      1705      1710
      1693      1716      1713      1710      1693      1716      1713      1714
      1693      1716      1713      1715      1693      1716      1718      1719
      1693      1716      1718      1723      1694      1693      1695      1696
      1694      1693      1695      1697      1694      1693      1695      1705
      1694      1693      1716      1713      1694      1693      1716      1717
      1694      1693      1716      1718      1695      1693      1716      1713
      1695      1693      1716      1717      1695      1693      1716      1718
      1695      1697      1700      1701      1695      1697      1700      1702
      1695      1697      1700      1703      1695      1705      1703      1700
      1695      1705      1703      1704      1695      1705      1703      1729
      1695      1705      1706      1707      1695      1705      1706      1708
      1695      1705      1706      1709      1695      1705      1710      1711
      1695      1705      1710      1712      1695      1705      1710      1713
      1696      1695      1693      1716      1696      1695      1697      1698
      1696      1695      1697      1699      1696      1695      1697      1700
      1696      1695      1705      1703      1696      1695      1705      1706
      1696      1695      1705      1710      1697      1695      1693      1716
      1697      1695      1705      1703      1697      1695      1705      1706
      1697      1695      1705      1710      1697      1700      1703      1704
      1697      1700      1703      1705      1697      1700      1703      1729
      1698      1697      1695      1705      1698      1697      1700      1701
      1698      1697      1700      1702      1698      1697      1700      1703
      1699      1697      1695      1705      1699      1697      1700      1701
      1699      1697      1700      1702      1699      1697      1700      1703
      1700      1697      1695      1705      1700      1703      1705      1706
      1700      1703      1705      1710      1700      1703      1729      1730
      1700      1703      1729      1731      1700      1703      1729      1735
      1701      1700      1703      1704      1701      1700      1703      1705
      1701      1700      1703      1729      1702      1700      1703      1704
      1702      1700      1703      1705      1702      1700      1703      1729
      1703      1705      1706      1707      1703      1705      1706      1708
      1703      1705      1706      1709      1703      1705      1710      1711
      1703      1705      1710      1712      1703      1705      1710      1713
      1703      1729      1731      1732      1703      1729      1731      1733
      1703      1729      1731      1734      1703      1729      1735      1736
      1703      1729      1735      1737      1703      1729      1735      1738
      1704      1703      1705      1706      1704      1703      1705      1710
      1704      1703      1729      1730      1704      1703      1729      1731
      1704      1703      1729      1735      1705      1695      1693      1716
      1705      1703      1729      1730      1705      1703      1729      1731
      1705      1703      1729      1735      1705      1710      1713      1714
      1705      1710      1713      1715      1705      1710      1713      1716
      1706      1705      1703      1729      1706      1705      1710      1711
      1706      1705      1710      1712      1706      1705      1710      1713
      1707      1706      1705      1710      1708      1706      1705      1710
      1709      1706      1705      1710      1710      1705      1703      1729
      1710      1713      1716      1717      1710      1713      1716      1718
      1711      1710      1713      1714      1711      1710      1713      1715
      1711      1710      1713      1716      1712      1710      1713      1714
      1712      1710      1713      1715      1712      1710      1713      1716
      1713      1716      1718      1719      1713      1716      1718      1723
      1714      1713      1716      1717      1714      1713      1716      1718
      1715      1713      1716      1717      1715      1713      1716      1718
      1716      1718      1719      1720      1716      1718      1719      1721
      1716      1718      1719      1722      1716      1718      1723      1724
      1716      1718      1723      1725      1716      1718      1723      1726
      1717      1716      1718      1719      1717      1716      1718      1723
      1718      1723      1726      1727      1718      1723      1726      1728
      1719      1718      1723      1724      1719      1718      1723      1725
      1719      1718      1723      1726      1720      1719      1718      1723
      1721      1719      1718      1723      1722      1719      1718      1723
      1724      1723      1726      1727      1724      1723      1726      1728
      1725      1723      1726      1727      1725      1723      1726      1728
      1729      1735      1738      1739      1729      1735      1738      1740
      1729      1735      1738      1741      1730      1729      1731      1732
      1730      1729      1731      1733      1730      1729      1731      1734
      1730      1729      1735      1736      1730      1729      1735      1737
      1730      1729      1735      1738      1731      1729      1735      1736
      1731      1729      1735      1737      1731      1729      1735      1738
      1732      1731      1729      1735      1733      1731      1729      1735
      1734      1731      1729      1735      1735      1738      1741      1742
      1735      1738      1741      1743      1735      1738      1741      1744
      1736      1735      1738      1739      1736      1735      1738      1740
      1736      1735      1738      1741      1737      1735      1738      1739
      1737      1735      1738      1740      1737      1735      1738      1741
      1738      1741      1744      1745      1738      1741      1744      1746
      1738      1741      1744      1750      1739      1738      1741      1742
      1739      1738      1741      1743      1739      1738      1741      1744
      1740      1738      1741      1742      1740      1738      1741      1743
      1740      1738      1741      1744      1741      1744      1746      1747
      1741      1744      1746      1748      1741      1744      1746      1749
      1741      1744      1750      1751      1741      1744      1750      1752
      1741      1744      1750      1753      1742      1741      1744      1745
      1742      1741      1744      1746      1742      1741      1744      1750
      1743      1741      1744      1745      1743      1741      1744      1746
      1743      1741      1744      1750      1745      1744      1746      1747
      1745      1744      1746      1748      1745      1744      1746      1749
      1745      1744      1750      1751      1745      1744      1750      1752
      1745      1744      1750      1753      1746      1744      1750      1751
      1746      1744      1750      1752      1746      1744      1750      1753
      1747      1746      1744      1750      1748      1746      1744      1750
      1749      1746      1744      1750      1754      1758      1761      1762
      1754      1758      1761      1763      1754      1758      1761      1768
      1755      1754      1758      1759      1755      1754      1758      1760
      1755      1754      1758      1761      1756      1754      1758      1759
      1756      1754      1758      1760      1756      1754      1758      1761
      1757      1754      1758      1759      1757      1754      1758      1760
      1757      1754      1758      1761      1758      1761      1768      1764
      1759      1758      1761      1762      1759      1758      1761      1763
      1759      1758      1761      1768      1760      1758      1761      1762
      1760      1758      1761      1763      1760      1758      1761      1768
      1761      1768      1764      1765      1761      1768      1764      1766
      1761      1768      1764      1767      1762      1761      1768      1764
      1763      1761      1768      1764      1764      1767      1769      1770
      1764      1767      1769      1771      1764      1767      1769      1772
      1765      1764      1767      1769      1766      1764      1767      1769
      1767      1769      1772      1773      1767      1769      1772      1774
      1767      1769      1772      1780      1768      1764      1767      1769
      1769      1772      1774      1775      1769      1772      1780      1781
      1769      1772      1780      1782      1769      1772      1780      1783
      1770      1769      1772      1773      1770      1769      1772      1774
      1770      1769      1772      1780      1771      1769      1772      1773
      1771      1769      1772      1774      1771      1769      1772      1780
      1772      1774      1775      1776      1772      1774      1775      1777
      1772      1780      1783      1784      1773      1772      1774      1775
      1773      1772      1780      1781      1773      1772      1780      1782
      1773      1772      1780      1783      1774      1772      1780      1781
      1774      1772      1780      1782      1774      1772      1780      1783
      1774      1775      1777      1778      1774      1775      1777      1779
      1774      1775      1777      1789      1775      1774      1772      1780
      1775      1777      1789      1790      1775      1777      1789      1791
      1775      1777      1789      1792      1776      1775      1777      1778
      1776      1775      1777      1779      1776      1775      1777      1789
      1777      1789      1792      1793      1777      1789      1792      1794
      1777      1789      1792      1795      1778      1777      1789      1790
      1778      1777      1789      1791      1778      1777      1789      1792
      1779      1777      1789      1790      1779      1777      1789      1791
      1779      1777      1789      1792      1780      1783      1784      1785
      1780      1783      1784      1786      1781      1780      1783      1784
      1782      1780      1783      1784      1783      1784      1786      1787
      1783      1784      1786      1788      1783      1784      1786      1836
      1784      1786      1836      1837      1784      1786      1836      1838
      1784      1786      1836      1839      1785      1784      1786      1787
      1785      1784      1786      1788      1785      1784      1786      1836
      1786      1836      1839      1840      1786      1836      1839      1841
      1786      1836      1839      1842      1787      1786      1836      1837
      1787      1786      1836      1838      1787      1786      1836      1839
      1788      1786      1836      1837      1788      1786      1836      1838
      1788      1786      1836      1839      1789      1792      1795      1796
      1789      1792      1795      1797      1789      1792      1795      1798
      1790      1789      1792      1793      1790      1789      1792      1794
      1790      1789      1792      1795      1791      1789      1792      1793
      1791      1789      1792      1794      1791      1789      1792      1795
      1792      1795      1798      1799      1792      1795      1798      1800
      1792      1795      1798      1801      1793      1792      1795      1796
      1793      1792      1795      1797      1793      1792      1795      1798
      1794      1792      1795      1796      1794      1792      1795      1797
      1794      1792      1795      1798      1795      1798      1801      1802
      1795      1798      1801      1803      1795      1798      1801      1804
      1796      1795      1798      1799      1796      1795      1798      1800
      1796      1795      1798      1801      1797      1795      1798      1799
      1797      1795      1798      1800      1797      1795      1798      1801
      1798      1801      1804      1805      1798      1801      1804      1806
      1798      1801      1804      1807      1799      1798      1801      1802
      1799      1798      1801      1803      1799      1798      1801      1804
      1800      1798      1801      1802      1800      1798      1801      1803
      1800      1798      1801      1804      1801      1804      1807      1808
      1801      1804      1807      1809      1802      1801      1804      1805
      1802      1801      1804      1806      1802      1801      1804      1807
      1803      1801      1804      1805      1803      1801      1804      1806
      1803      1801      1804      1807      1804      1807      1809      1810
      1804      1807      1809      1811      1805      1804      1807      1808
      1805      1804      1807      1809      1806      1804      1807      1808
      1806      1804      1807      1809      1807      1809      1811      1812
      1807      1809      1811      1813      1807      1809      1811      1814
      1808      1807      1809      1810      1808      1807      1809      1811
      1809      1811      1814      1815      1809      1811      1814      1816
      1809      1811      1814      1817      1810      1809      1811      1812
      1810      1809      1811      1813      1810      1809      1811      1814
      1811      1814      1817      1818      1811      1814      1817      1819
      1811      1814      1817      1820      1812      1811      1814      1815
      1812      1811      1814      1816      1812      1811      1814      1817
      1813      1811      1814      1815      1813      1811      1814      1816
      1813      1811      1814      1817      1814      1817      1820      1821
      1814      1817      1820      1822      1814      1817      1820      1823
      1815      1814      1817      1818      1815      1814      1817      1819
      1815      1814      1817      1820      1816      1814      1817      1818
      1816      1814      1817      1819      1816      1814      1817      1820
      1817      1820      1823      1824      1817      1820      1823      1825
      1817      1820      1823      1826      1818      1817      1820      1821
      1818      1817      1820      1822      1818      1817      1820      1823
      1819      1817      1820      1821      1819      1817      1820      1822
      1819      1817      1820      1823      1820      1823      1826      1827
      1820      1823      1826      1828      1820      1823      1826      1829
      1821      1820      1823      1824      1821      1820      1823      1825
      1821      1820      1823      1826      1822      1820      1823      1824
      1822      1820      1823      1825      1822      1820      1823      1826
      1823      1826      1829      1830      1823      1826      1829      1831
      1823      1826      1829      1832      1824      1823      1826      1827
      1824      1823      1826      1828      1824      1823      1826      1829
      1825      1823      1826      1827      1825      1823      1826      1828
      1825      1823      1826      1829      1826      1829      1832      1833
      1826      1829      1832      1834      1826      1829      1832      1835
      1827      1826      1829      1830      1827      1826      1829      1831
      1827      1826      1829      1832      1828      1826      1829      1830
      1828      1826      1829      1831      1828      1826      1829      1832
      1830      1829      1832      1833      1830      1829      1832      1834
      1830      1829      1832      1835      1831      1829      1832      1833
      1831      1829      1832      1834      1831      1829      1832      1835
      1836      1839      1842      1843      1836      1839      1842      1844
      1836      1839      1842      1845      1837      1836      1839      1840
      1837      1836      1839      1841      1837      1836      1839      1842
      1838      1836      1839      1840      1838      1836      1839      1841
      1838      1836      1839      1842      1839      1842      1845      1846
      1839      1842      1845      1847      1839      1842      1845      1848
      1840      1839      1842      1843      1840      1839      1842      1844
      1840      1839      1842      1845      1841      1839      1842      1843
      1841      1839      1842      1844      1841      1839      1842      1845
      1842      1845      1848      1849      1842      1845      1848      1850
      1842      1845      1848      1851      1843      1842      1845      1846
      1843      1842      1845      1847      1843      1842      1845      1848
      1844      1842      1845      1846      1844      1842      1845      1847
      1844      1842      1845      1848      1845      1848      1851      1852
      1845      1848      1851      1853      1845      1848      1851      1854
      1846      1845      1848      1849      1846      1845      1848      1850
      1846      1845      1848      1851      1847      1845      1848      1849
      1847      1845      1848      1850      1847      1845      1848      1851
      1848      1851      1854      1855      1848      1851      1854      1856
      1849      1848      1851      1852      1849      1848      1851      1853
      1849      1848      1851      1854      1850      1848      1851      1852
      1850      1848      1851      1853      1850      1848      1851      1854
      1851      1854      1856      1857      1851      1854      1856      1858
      1852      1851      1854      1855      1852      1851      1854      1856
      1853      1851      1854      1855      1853      1851      1854      1856
      1854      1856      1858      1859      1854      1856      1858      1860
      1854      1856      1858      1861      1855      1854      1856      1857
      1855      1854      1856      1858      1856      1858      1861      1862
      1856      1858      1861      1863      1856      1858      1861      1864
      1857      1856      1858      1859      1857      1856      1858      1860
      1857      1856      1858      1861      1858      1861      1864      1865
      1858      1861      1864      1866      1858      1861      1864      1867
      1859      1858      1861      1862      1859      1858      1861      1863
      1859      1858      1861      1864      1860      1858      1861      1862
      1860      1858      1861      1863      1860      1858      1861      1864
      1861      1864      1867      1868      1861      1864      1867      1869
      1861      1864      1867      1870      1862      1861      1864      1865
      1862      1861      1864      1866      1862      1861      1864      1867
      1863      1861      1864      1865      1863      1861      1864      1866
      1863      1861      1864      1867      1864      1867      1870      1871
      1864      1867      1870      1872      1864      1867      1870      1873
      1865      1864      1867      1868      1865      1864      1867      1869
      1865      1864      1867      1870      1866      1864      1867      1868
      1866      1864      1867      1869      1866      1864      1867      1870
      1867      1870      1873      1874      1867      1870      1873      1875
      1867      1870      1873      1876      1868      1867      1870      1871
      1868      1867      1870      1872      1868      1867      1870      1873
      1869      1867      1870      1871      1869      1867      1870      1872
      1869      1867      1870      1873      1870      1873      1876      1877
      1870      1873      1876      1878      1870      1873      1876      1879
      1871      1870      1873      1874      1871      1870      1873      1875
      1871      1870      1873      1876      1872      1870      1873      1874
      1872      1870      1873      1875      1872      1870      1873      1876
      1873      1876      1879      1880      1873      1876      1879      1881
      1873      1876      1879      1882      1874      1873      1876      1877
      1874      1873      1876      1878      1874      1873      1876      1879
      1875      1873      1876      1877      1875      1873      1876      1878
      1875      1873      1876      1879      1877      1876      1879      1880
      1877      1876      1879      1881      1877      1876      1879      1882
      1878      1876      1879      1880      1878      1876      1879      1881
      1878      1876      1879      1882      1883      1884      1899      1900
      1883      1884      1899      1901      1883      1884      1899      1905
      1884      1883      1887      1888      1884      1883      1887      1889
      1884      1883      1887      1890      1884      1883      1891      1892
      1884      1883      1891      1893      1884      1883      1891      1894
      1884      1883      1895      1896      1884      1883      1895      1897
      1884      1883      1895      1898      1884      1899      1905      1902
      1885      1884      1883      1887      1885      1884      1883      1891
      1885      1884      1883      1895      1885      1884      1899      1900
      1885      1884      1899      1901      1885      1884      1899      1905
      1886      1884      1883      1887      1886      1884      1883      1891
      1886      1884      1883      1895      1886      1884      1899      1900
      1886      1884      1899      1901      1886      1884      1899      1905
      1887      1883      1884      1899      1887      1883      1891      1892
      1887      1883      1891      1893      1887      1883      1891      1894
      1887      1883      1895      1896      1887      1883      1895      1897
      1887      1883      1895      1898      1888      1887      1883      1891
      1888      1887      1883      1895      1889      1887      1883      1891
      1889      1887      1883      1895      1890      1887      1883      1891
      1890      1887      1883      1895      1891      1883      1884      1899
      1891      1883      1895      1896      1891      1883      1895      1897
      1891      1883      1895      1898      1892      1891      1883      1895
      1893      1891      1883      1895      1894      1891      1883      1895
      1895      1883      1884      1899      1899      1905      1902      1903
      1899      1905      1902      1904      1899      1905      1902      1906
      1900      1899      1905      1902      1901      1899      1905      1902
      1902      1906      1907      1908      1902      1906      1907      1909
      1902      1906      1907      1910      1903      1902      1906      1907
      1904      1902      1906      1907      1905      1902      1906      1907
      1906      1907      1910      1911      1906      1907      1910      1912
      1906      1907      1910      1918      1907      1910      1912      1913
      1907      1910      1918      1919      1907      1910      1918      1920
      1907      1910      1918      1921      1908      1907      1910      1911
      1908      1907      1910      1912      1908      1907      1910      1918
      1909      1907      1910      1911      1909      1907      1910      1912
      1909      1907      1910      1918      1910      1912      1913      1914
      1910      1912      1913      1915      1910      1918      1921      1922
      1911      1910      1912      1913      1911      1910      1918      1919
      1911      1910      1918      1920      1911      1910      1918      1921
      1912      1910      1918      1919      1912      1910      1918      1920
      1912      1910      1918      1921      1912      1913      1915      1916
      1912      1913      1915      1917      1912      1913      1915      1927
      1913      1912      1910      1918      1913      1915      1927      1928
      1913      1915      1927      1929      1913      1915      1927      1930
      1914      1913      1915      1916      1914      1913      1915      1917
      1914      1913      1915      1927      1915      1927      1930      1931
      1915      1927      1930      1932      1915      1927      1930      1933
      1916      1915      1927      1928      1916      1915      1927      1929
      1916      1915      1927      1930      1917      1915      1927      1928
      1917      1915      1927      1929      1917      1915      1927      1930
      1918      1921      1922      1923      1918      1921      1922      1924
      1919      1918      1921      1922      1920      1918      1921      1922
      1921      1922      1924      1925      1921      1922      1924      1926
      1921      1922      1924      1974      1922      1924      1974      1975
      1922      1924      1974      1976      1922      1924      1974      1977
      1923      1922      1924      1925      1923      1922      1924      1926
      1923      1922      1924      1974      1924      1974      1977      1978
      1924      1974      1977      1979      1924      1974      1977      1980
      1925      1924      1974      1975      1925      1924      1974      1976
      1925      1924      1974      1977      1926      1924      1974      1975
      1926      1924      1974      1976      1926      1924      1974      1977
      1927      1930      1933      1934      1927      1930      1933      1935
      1927      1930      1933      1936      1928      1927      1930      1931
      1928      1927      1930      1932      1928      1927      1930      1933
      1929      1927      1930      1931      1929      1927      1930      1932
      1929      1927      1930      1933      1930      1933      1936      1937
      1930      1933      1936      1938      1930      1933      1936      1939
      1931      1930      1933      1934      1931      1930      1933      1935
      1931      1930      1933      1936      1932      1930      1933      1934
      1932      1930      1933      1935      1932      1930      1933      1936
      1933      1936      1939      1940      1933      1936      1939      1941
      1933      1936      1939      1942      1934      1933      1936      1937
      1934      1933      1936      1938      1934      1933      1936      1939
      1935      1933      1936      1937      1935      1933      1936      1938
      1935      1933      1936      1939      1936      1939      1942      1943
      1936      1939      1942      1944      1936      1939      1942      1945
      1937      1936      1939      1940      1937      1936      1939      1941
      1937      1936      1939      1942      1938      1936      1939      1940
      1938      1936      1939      1941      1938      1936      1939      1942
      1939      1942      1945      1946      1939      1942      1945      1947
      1940      1939      1942      1943      1940      1939      1942      1944
      1940      1939      1942      1945      1941      1939      1942      1943
      1941      1939      1942      1944      1941      1939      1942      1945
      1942      1945      1947      1948      1942      1945      1947      1949
      1943      1942      1945      1946      1943      1942      1945      1947
      1944      1942      1945      1946      1944      1942      1945      1947
      1945      1947      1949      1950      1945      1947      1949      1951
      1945      1947      1949      1952      1946      1945      1947      1948
      1946      1945      1947      1949      1947      1949      1952      1953
      1947      1949      1952      1954      1947      1949      1952      1955
      1948      1947      1949      1950      1948      1947      1949      1951
      1948      1947      1949      1952      1949      1952      1955      1956
      1949      1952      1955      1957      1949      1952      1955      1958
      1950      1949      1952      1953      1950      1949      1952      1954
      1950      1949      1952      1955      1951      1949      1952      1953
      1951      1949      1952      1954      1951      1949      1952      1955
      1952      1955      1958      1959      1952      1955      1958      1960
      1952      1955      1958      1961      1953      1952      1955      1956
      1953      1952      1955      1957      1953      1952      1955      1958
      1954      1952      1955      1956      1954      1952      1955      1957
      1954      1952      1955      1958      1955      1958      1961      1962
      1955      1958      1961      1963      1955      1958      1961      1964
      1956      1955      1958      1959      1956      1955      1958      1960
      1956      1955      1958      1961      1957      1955      1958      1959
      1957      1955      1958      1960      1957      1955      1958      1961
      1958      1961      1964      1965      1958      1961      1964      1966
      1958      1961      1964      1967      1959      1958      1961      1962
      1959      1958      1961      1963      1959      1958      1961      1964
      1960      1958      1961      1962      1960      1958      1961      1963
      1960      1958      1961      1964      1961      1964      1967      1968
      1961      1964      1967      1969      1961      1964      1967      1970
      1962      1961      1964      1965      1962      1961      1964      1966
      1962      1961      1964      1967      1963      1961      1964      1965
      1963      1961      1964      1966      1963      1961      1964      1967
      1964      1967      1970      1971      1964      1967      1970      1972
      1964      1967      1970      1973      1965      1964      1967      1968
      1965      1964      1967      1969      1965      1964      1967      1970
      1966      1964      1967      1968      1966      1964      1967      1969
      1966      1964      1967      1970      1968      1967      1970      1971
      1968      1967      1970      1972      1968      1967      1970      1973
      1969      1967      1970      1971      1969      1967      1970      1972
      1969      1967      1970      1973      1974      1977      1980      1981
      1974      1977      1980      1982      1974      1977      1980      1983
      1975      1974      1977      1978      1975      1974      1977      1979
      1975      1974      1977      1980      1976      1974      1977      1978
      1976      1974      1977      1979      1976      1974      1977      1980
      1977      1980      1983      1984      1977      1980      1983      1985
      1977      1980      1983      1986      1978      1977      1980      1981
      1978      1977      1980      1982      1978      1977      1980      1983
      1979      1977      1980      1981      1979      1977      1980      1982
      1979      1977      1980      1983      1980      1983      1986      1987
      1980      1983      1986      1988      1980      1983      1986      1989
      1981      1980      1983      1984      1981      1980      1983      1985
      1981      1980      1983      1986      1982      1980      1983      1984
      1982      1980      1983      1985      1982      1980      1983      1986
      1983      1986      1989      1990      1983      1986      1989      1991
      1983      1986      1989      1992      1984      1983      1986      1987
      1984      1983      1986      1988      1984      1983      1986      1989
      1985      1983      1986      1987      1985      1983      1986      1988
      1985      1983      1986      1989      1986      1989      1992      1993
      1986      1989      1992      1994      1987      1986      1989      1990
      1987      1986      1989      1991      1987      1986      1989      1992
      1988      1986      1989      1990      1988      1986      1989      1991
      1988      1986      1989      1992      1989      1992      1994      1995
      1989      1992      1994      1996      1990      1989      1992      1993
      1990      1989      1992      1994      1991      1989      1992      1993
      1991      1989      1992      1994      1992      1994      1996      1997
      1992      1994      1996      1998      1992      1994      1996      1999
      1993      1992      1994      1995      1993      1992      1994      1996
      1994      1996      1999      2000      1994      1996      1999      2001
      1994      1996      1999      2002      1995      1994      1996      1997
      1995      1994      1996      1998      1995      1994      1996      1999
      1996      1999      2002      2003      1996      1999      2002      2004
      1996      1999      2002      2005      1997      1996      1999      2000
      1997      1996      1999      2001      1997      1996      1999      2002
      1998      1996      1999      2000      1998      1996      1999      2001
      1998      1996      1999      2002      1999      2002      2005      2006
      1999      2002      2005      2007      1999      2002      2005      2008
      2000      1999      2002      2003      2000      1999      2002      2004
      2000      1999      2002      2005      2001      1999      2002      2003
      2001      1999      2002      2004      2001      1999      2002      2005
      2002      2005      2008      2009      2002      2005      2008      2010
      2002      2005      2008      2011      2003      2002      2005      2006
      2003      2002      2005      2007      2003      2002      2005      2008
      2004      2002      2005      2006      2004      2002      2005      2007
      2004      2002      2005      2008      2005      2008      2011      2012
      2005      2008      2011      2013      2005      2008      2011      2014
      2006      2005      2008      2009      2006      2005      2008      2010
      2006      2005      2008      2011      2007      2005      2008      2009
      2007      2005      2008      2010      2007      2005      2008      2011
      2008      2011      2014      2015      2008      2011      2014      2016
      2008      2011      2014      2017      2009      2008      2011      2012
      2009      2008      2011      2013      2009      2008      2011      2014
      2010      2008      2011      2012      2010      2008      2011      2013
      2010      2008      2011      2014      2011      2014      2017      2018
      2011      2014      2017      2019      2011      2014      2017      2020
      2012      2011      2014      2015      2012      2011      2014      2016
      2012      2011      2014      2017      2013      2011      2014      2015
      2013      2011      2014      2016      2013      2011      2014      2017
      2015      2014      2017      2018      2015      2014      2017      2019
      2015      2014      2017      2020      2016      2014      2017      2018
      2016      2014      2017      2019      2016      2014      2017      2020
      2021      2034      2037      2038      2021      2034      2037      2039
      2021      2034      2037      2044      2022      2021      2026      2027
      2022      2021      2026      2028      2022      2021      2026      2029
      2022      2021      2030      2031      2022      2021      2030      2032
      2022      2021      2030      2033      2022      2021      2034      2035
      2022      2021      2034      2036      2022      2021      2034      2037
      2023      2022      2021      2026      2023      2022      2021      2030
      2023      2022      2021      2034      2024      2022      2021      2026
      2024      2022      2021      2030      2024      2022      2021      2034
      2025      2022      2021      2026      2025      2022      2021      2030
      2025      2022      2021      2034      2026      2021      2030      2031
      2026      2021      2030      2032      2026      2021      2030      2033
      2026      2021      2034      2035      2026      2021      2034      2036
      2026      2021      2034      2037      2027      2026      2021      2030
      2027      2026      2021      2034      2028      2026      2021      2030
      2028      2026      2021      2034      2029      2026      2021      2030
      2029      2026      2021      2034      2030      2021      2034      2035
      2030      2021      2034      2036      2030      2021      2034      2037
      2031      2030      2021      2034      2032      2030      2021      2034
      2033      2030      2021      2034      2034      2037      2044      2040
      2035      2034      2037      2038      2035      2034      2037      2039
      2035      2034      2037      2044      2036      2034      2037      2038
      2036      2034      2037      2039      2036      2034      2037      2044
      2037      2044      2040      2041      2037      2044      2040      2042
      2037      2044      2040      2043      2038      2037      2044      2040
      2039      2037      2044      2040      2040      2043      2045      2046
      2040      2043      2045      2047      2040      2043      2045      2050
      2041      2040      2043      2045      2042      2040      2043      2045
      2043      2045      2050      2048      2043      2045      2050      2051
      2043      2045      2050      2052      2044      2040      2043      2045
      2045      2050      2048      2049      2045      2050      2048      2100
      2045      2050      2052      2053      2045      2050      2052      2054
      2045      2050      2052      2056      2046      2045      2050      2048
      2046      2045      2050      2051      2046      2045      2050      2052
      2047      2045      2050      2048      2047      2045      2050      2051
      2047      2045      2050      2052      2048      2050      2052      2053
      2048      2050      2052      2054      2048      2050      2052      2056
      2048      2100      2102      2103      2048      2100      2102      2104
      2048      2100      2102      2105      2049      2048      2050      2051
      2049      2048      2050      2052      2049      2048      2100      2101
      2049      2048      2100      2102      2050      2048      2100      2101
      2050      2048      2100      2102      2050      2052      2054      2055
      2050      2052      2056      2057      2050      2052      2056      2058
      2051      2050      2048      2100      2051      2050      2052      2053
      2051      2050      2052      2054      2051      2050      2052      2056
      2052      2050      2048      2100      2052      2056      2058      2059
      2052      2056      2058      2060      2053      2052      2054      2055
      2053      2052      2056      2057      2053      2052      2056      2058
      2054      2052      2056      2057      2054      2052      2056      2058
      2055      2054      2052      2056      2056      2058      2060      2061
      2056      2058      2060      2062      2056      2058      2060      2063
      2057      2056      2058      2059      2057      2056      2058      2060
      2058      2060      2063      2064      2058      2060      2063      2065
      2058      2060      2063      2066      2059      2058      2060      2061
      2059      2058      2060      2062      2059      2058      2060      2063
      2060      2063      2066      2067      2060      2063      2066      2068
      2060      2063      2066      2069      2061      2060      2063      2064
      2061      2060      2063      2065      2061      2060      2063      2066
      2062      2060      2063      2064      2062      2060      2063      2065
      2062      2060      2063      2066      2063      2066      2069      2070
      2063      2066      2069      2071      2063      2066      2069      2072
      2064      2063      2066      2067      2064      2063      2066      2068
      2064      2063      2066      2069      2065      2063      2066      2067
      2065      2063      2066      2068      2065      2063      2066      2069
      2066      2069      2072      2073      2066      2069      2072      2074
      2066      2069      2072      2075      2067      2066      2069      2070
      2067      2066      2069      2071      2067      2066      2069      2072
      2068      2066      2069      2070      2068      2066      2069      2071
      2068      2066      2069      2072      2069      2072      2075      2076
      2069      2072      2075      2077      2069      2072      2075      2078
      2070      2069      2072      2073      2070      2069      2072      2074
      2070      2069      2072      2075      2071      2069      2072      2073
      2071      2069      2072      2074      2071      2069      2072      2075
      2072      2075      2078      2079      2072      2075      2078      2080
      2072      2075      2078      2081      2073      2072      2075      2076
      2073      2072      2075      2077      2073      2072      2075      2078
      2074      2072      2075      2076      2074      2072      2075      2077
      2074      2072      2075      2078      2075      2078      2081      2082
      2075      2078      2081      2083      2075      2078      2081      2084
      2076      2075      2078      2079      2076      2075      2078      2080
      2076      2075      2078      2081      2077      2075      2078      2079
      2077      2075      2078      2080      2077      2075      2078      2081
      2078      2081      2084      2085      2078      2081      2084      2086
      2078      2081      2084      2087      2079      2078      2081      2082
      2079      2078      2081      2083      2079      2078      2081      2084
      2080      2078      2081      2082      2080      2078      2081      2083
      2080      2078      2081      2084      2081      2084      2087      2088
      2081      2084      2087      2089      2081      2084      2087      2090
      2082      2081      2084      2085      2082      2081      2084      2086
      2082      2081      2084      2087      2083      2081      2084      2085
      2083      2081      2084      2086      2083      2081      2084      2087
      2084      2087      2090      2091      2084      2087      2090      2092
      2084      2087      2090      2093      2085      2084      2087      2088
      2085      2084      2087      2089      2085      2084      2087      2090
      2086      2084      2087      2088      2086      2084      2087      2089
      2086      2084      2087      2090      2087      2090      2093      2094
      2087      2090      2093      2095      2087      2090      2093      2096
      2088      2087      2090      2091      2088      2087      2090      2092
      2088      2087      2090      2093      2089      2087      2090      2091
      2089      2087      2090      2092      2089      2087      2090      2093
      2090      2093      2096      2097      2090      2093      2096      2098
      2090      2093      2096      2099      2091      2090      2093      2094
      2091      2090      2093      2095      2091      2090      2093      2096
      2092      2090      2093      2094      2092      2090      2093      2095
      2092      2090      2093      2096      2094      2093      2096      2097
      2094      2093      2096      2098      2094      2093      2096      2099
      2095      2093      2096      2097      2095      2093      2096      2098
      2095      2093      2096      2099      2100      2102      2105      2106
      2100      2102      2105      2107      2100      2102      2105      2108
      2101      2100      2102      2103      2101      2100      2102      2104
      2101      2100      2102      2105      2102      2105      2108      2109
      2102      2105      2108      2110      2102      2105      2108      2111
      2103      2102      2105      2106      2103      2102      2105      2107
      2103      2102      2105      2108      2104      2102      2105      2106
      2104      2102      2105      2107      2104      2102      2105      2108
      2105      2108      2111      2112      2105      2108      2111      2113
      2105      2108      2111      2114      2106      2105      2108      2109
      2106      2105      2108      2110      2106      2105      2108      2111
      2107      2105      2108      2109      2107      2105      2108      2110
      2107      2105      2108      2111      2108      2111      2114      2115
      2108      2111      2114      2116      2108      2111      2114      2117
      2109      2108      2111      2112      2109      2108      2111      2113
      2109      2108      2111      2114      2110      2108      2111      2112
      2110      2108      2111      2113      2110      2108      2111      2114
      2111      2114      2117      2118      2111      2114      2117      2119
      2111      2114      2117      2120      2112      2111      2114      2115
      2112      2111      2114      2116      2112      2111      2114      2117
      2113      2111      2114      2115      2113      2111      2114      2116
      2113      2111      2114      2117      2114      2117      2120      2121
      2114      2117      2120      2122      2114      2117      2120      2123
      2115      2114      2117      2118      2115      2114      2117      2119
      2115      2114      2117      2120      2116      2114      2117      2118
      2116      2114      2117      2119      2116      2114      2117      2120
      2117      2120      2123      2124      2117      2120      2123      2125
      2117      2120      2123      2126      2118      2117      2120      2121
      2118      2117      2120      2122      2118      2117      2120      2123
      2119      2117      2120      2121      2119      2117      2120      2122
      2119      2117      2120      2123      2120      2123      2126      2127
      2120      2123      2126      2128      2120      2123      2126      2129
      2121      2120      2123      2124      2121      2120      2123      2125
      2121      2120      2123      2126      2122      2120      2123      2124
      2122      2120      2123      2125      2122      2120      2123      2126
      2123      2126      2129      2130      2123      2126      2129      2131
      2123      2126      2129      2132      2124      2123      2126      2127
      2124      2123      2126      2128      2124      2123      2126      2129
      2125      2123      2126      2127      2125      2123      2126      2128
      2125      2123      2126      2129      2126      2129      2132      2133
      2126      2129      2132      2134      2126      2129      2132      2135
      2127      2126      2129      2130      2127      2126      2129      2131
      2127      2126      2129      2132      2128      2126      2129      2130
      2128      2126      2129      2131      2128      2126      2129      2132
      2129      2132      2135      2136      2129      2132      2135      2137
      2129      2132      2135      2138      2130      2129      2132      2133
      2130      2129      2132      2134      2130      2129      2132      2135
      2131      2129      2132      2133      2131      2129      2132      2134
      2131      2129      2132      2135      2132      2135      2138      2139
      2132      2135      2138      2140      2132      2135      2138      2141
      2133      2132      2135      2136      2133      2132      2135      2137
      2133      2132      2135      2138      2134      2132      2135      2136
      2134      2132      2135      2137      2134      2132      2135      2138
      2135      2138      2141      2142      2135      2138      2141      2143
      2135      2138      2141      2144      2136      2135      2138      2139
      2136      2135      2138      2140      2136      2135      2138      2141
      2137      2135      2138      2139      2137      2135      2138      2140
      2137      2135      2138      2141      2138      2141      2144      2145
      2138      2141      2144      2146      2138      2141      2144      2147
      2139      2138      2141      2142      2139      2138      2141      2143
      2139      2138      2141      2144      2140      2138      2141      2142
      2140      2138      2141      2143      2140      2138      2141      2144
      2141      2144      2147      2148      2141      2144      2147      2149
      2141      2144      2147      2150      2142      2141      2144      2145
      2142      2141      2144      2146      2142      2141      2144      2147
      2143      2141      2144      2145      2143      2141      2144      2146
      2143      2141      2144      2147      2144      2147      2150      2151
      2144      2147      2150      2152      2144      2147      2150      2153
      2145      2144      2147      2148      2145      2144      2147      2149
      2145      2144      2147      2150      2146      2144      2147      2148
      2146      2144      2147      2149      2146      2144      2147      2150
      2147      2150      2153      2154      2147      2150      2153      2155
      2147      2150      2153      2156      2148      2147      2150      2151
      2148      2147      2150      2152      2148      2147      2150      2153
      2149      2147      2150      2151      2149      2147      2150      2152
      2149      2147      2150      2153      2150      2153      2156      2157
      2150      2153      2156      2158      2150      2153      2156      2159
      2151      2150      2153      2154      2151      2150      2153      2155
      2151      2150      2153      2156      2152      2150      2153      2154
      2152      2150      2153      2155      2152      2150      2153      2156
      2153      2156      2159      2160      2153      2156      2159      2161
      2153      2156      2159      2162      2154      2153      2156      2157
      2154      2153      2156      2158      2154      2153      2156      2159
      2155      2153      2156      2157      2155      2153      2156      2158
      2155      2153      2156      2159      2156      2159      2162      2163
      2156      2159      2162      2164      2156      2159      2162      2165
      2157      2156      2159      2160      2157      2156      2159      2161
      2157      2156      2159      2162      2158      2156      2159      2160
      2158      2156      2159      2161      2158      2156      2159      2162
      2159      2162      2165      2166      2159      2162      2165      2167
      2159      2162      2165      2168      2160      2159      2162      2163
      2160      2159      2162      2164      2160      2159      2162      2165
      2161      2159      2162      2163      2161      2159      2162      2164
      2161      2159      2162      2165      2163      2162      2165      2166
      2163      2162      2165      2167      2163      2162      2165      2168
      2164      2162      2165      2166      2164      2162      2165      2167
      2164      2162      2165      2168      2169      2170      2185      2186
      2169      2170      2185      2187      2169      2170      2185      2191
      2170      2169      2173      2174      2170      2169      2173      2175
      2170      2169      2173      2176      2170      2169      2177      2178
      2170      2169      2177      2179      2170      2169      2177      2180
      2170      2169      2181      2182      2170      2169      2181      2183
      2170      2169      2181      2184      2170      2185      2191      2188
      2171      2170      2169      2173      2171      2170      2169      2177
      2171      2170      2169      2181      2171      2170      2185      2186
      2171      2170      2185      2187      2171      2170      2185      2191
      2172      2170      2169      2173      2172      2170      2169      2177
      2172      2170      2169      2181      2172      2170      2185      2186
      2172      2170      2185      2187      2172      2170      2185      2191
      2173      2169      2170      2185      2173      2169      2177      2178
      2173      2169      2177      2179      2173      2169      2177      2180
      2173      2169      2181      2182      2173      2169      2181      2183
      2173      2169      2181      2184      2174      2173      2169      2177
      2174      2173      2169      2181      2175      2173      2169      2177
      2175      2173      2169      2181      2176      2173      2169      2177
      2176      2173      2169      2181      2177      2169      2170      2185
      2177      2169      2181      2182      2177      2169      2181      2183
      2177      2169      2181      2184      2178      2177      2169      2181
      2179      2177      2169      2181      2180      2177      2169      2181
      2181      2169      2170      2185      2185      2191      2188      2189
      2185      2191      2188      2190      2185      2191      2188      2192
      2186      2185      2191      2188      2187      2185      2191      2188
      2188      2192      2193      2194      2188      2192      2193      2195
      2188      2192      2193      2196      2189      2188      2192      2193
      2190      2188      2192      2193      2191      2188      2192      2193
      2192      2193      2196      2197      2192      2193      2196      2198
      2192      2193      2196      2204      2193      2196      2198      2199
      2193      2196      2204      2205      2193      2196      2204      2206
      2193      2196      2204      2207      2194      2193      2196      2197
      2194      2193      2196      2198      2194      2193      2196      2204
      2195      2193      2196      2197      2195      2193      2196      2198
      2195      2193      2196      2204      2196      2198      2199      2200
      2196      2198      2199      2201      2196      2204      2207      2208
      2197      2196      2198      2199      2197      2196      2204      2205
      2197      2196      2204      2206      2197      2196      2204      2207
      2198      2196      2204      2205      2198      2196      2204      2206
      2198      2196      2204      2207      2198      2199      2201      2202
      2198      2199      2201      2203      2198      2199      2201      2213
      2199      2198      2196      2204      2199      2201      2213      2214
      2199      2201      2213      2215      2199      2201      2213      2216
      2200      2199      2201      2202      2200      2199      2201      2203
      2200      2199      2201      2213      2201      2213      2216      2217
      2201      2213      2216      2218      2201      2213      2216      2219
      2202      2201      2213      2214      2202      2201      2213      2215
      2202      2201      2213      2216      2203      2201      2213      2214
      2203      2201      2213      2215      2203      2201      2213      2216
      2204      2207      2208      2209      2204      2207      2208      2210
      2205      2204      2207      2208      2206      2204      2207      2208
      2207      2208      2210      2211      2207      2208      2210      2212
      2207      2208      2210      2260      2208      2210      2260      2261
      2208      2210      2260      2262      2208      2210      2260      2263
      2209      2208      2210      2211      2209      2208      2210      2212
      2209      2208      2210      2260      2210      2260      2263      2264
      2210      2260      2263      2265      2210      2260      2263      2266
      2211      2210      2260      2261      2211      2210      2260      2262
      2211      2210      2260      2263      2212      2210      2260      2261
      2212      2210      2260      2262      2212      2210      2260      2263
      2213      2216      2219      2220      2213      2216      2219      2221
      2213      2216      2219      2222      2214      2213      2216      2217
      2214      2213      2216      2218      2214      2213      2216      2219
      2215      2213      2216      2217      2215      2213      2216      2218
      2215      2213      2216      2219      2216      2219      2222      2223
      2216      2219      2222      2224      2216      2219      2222      2225
      2217      2216      2219      2220      2217      2216      2219      2221
      2217      2216      2219      2222      2218      2216      2219      2220
      2218      2216      2219      2221      2218      2216      2219      2222
      2219      2222      2225      2226      2219      2222      2225      2227
      2219      2222      2225      2228      2220      2219      2222      2223
      2220      2219      2222      2224      2220      2219      2222      2225
      2221      2219      2222      2223      2221      2219      2222      2224
      2221      2219      2222      2225      2222      2225      2228      2229
      2222      2225      2228      2230      2222      2225      2228      2231
      2223      2222      2225      2226      2223      2222      2225      2227
      2223      2222      2225      2228      2224      2222      2225      2226
      2224      2222      2225      2227      2224      2222      2225      2228
      2225      2228      2231      2232      2225      2228      2231      2233
      2226      2225      2228      2229      2226      2225      2228      2230
      2226      2225      2228      2231      2227      2225      2228      2229
      2227      2225      2228      2230      2227      2225      2228      2231
      2228      2231      2233      2234      2228      2231      2233      2235
      2229      2228      2231      2232      2229      2228      2231      2233
      2230      2228      2231      2232      2230      2228      2231      2233
      2231      2233      2235      2236      2231      2233      2235      2237
      2231      2233      2235      2238      2232      2231      2233      2234
      2232      2231      2233      2235      2233      2235      2238      2239
      2233      2235      2238      2240      2233      2235      2238      2241
      2234      2233      2235      2236      2234      2233      2235      2237
      2234      2233      2235      2238      2235      2238      2241      2242
      2235      2238      2241      2243      2235      2238      2241      2244
      2236      2235      2238      2239      2236      2235      2238      2240
      2236      2235      2238      2241      2237      2235      2238      2239
      2237      2235      2238      2240      2237      2235      2238      2241
      2238      2241      2244      2245      2238      2241      2244      2246
      2238      2241      2244      2247      2239      2238      2241      2242
      2239      2238      2241      2243      2239      2238      2241      2244
      2240      2238      2241      2242      2240      2238      2241      2243
      2240      2238      2241      2244      2241      2244      2247      2248
      2241      2244      2247      2249      2241      2244      2247      2250
      2242      2241      2244      2245      2242      2241      2244      2246
      2242      2241      2244      2247      2243      2241      2244      2245
      2243      2241      2244      2246      2243      2241      2244      2247
      2244      2247      2250      2251      2244      2247      2250      2252
      2244      2247      2250      2253      2245      2244      2247      2248
      2245      2244      2247      2249      2245      2244      2247      2250
      2246      2244      2247      2248      2246      2244      2247      2249
      2246      2244      2247      2250      2247      2250      2253      2254
      2247      2250      2253      2255      2247      2250      2253      2256
      2248      2247      2250      2251      2248      2247      2250      2252
      2248      2247      2250      2253      2249      2247      2250      2251
      2249      2247      2250      2252      2249      2247      2250      2253
      2250      2253      2256      2257      2250      2253      2256      2258
      2250      2253      2256      2259      2251      2250      2253      2254
      2251      2250      2253      2255      2251      2250      2253      2256
      2252      2250      2253      2254      2252      2250      2253      2255
      2252      2250      2253      2256      2254      2253      2256      2257
      2254      2253      2256      2258      2254      2253      2256      2259
      2255      2253      2256      2257      2255      2253      2256      2258
      2255      2253      2256      2259      2260      2263      2266      2267
      2260      2263      2266      2268      2260      2263      2266      2269
      2261      2260      2263      2264      2261      2260      2263      2265
      2261      2260      2263      2266      2262      2260      2263      2264
      2262      2260      2263      2265      2262      2260      2263      2266
      2263      2266      2269      2270      2263      2266      2269      2271
      2263      2266      2269      2272      2264      2263      2266      2267
      2264      2263      2266      2268      2264      2263      2266      2269
      2265      2263      2266      2267      2265      2263      2266      2268
      2265      2263      2266      2269      2266      2269      2272      2273
      2266      2269      2272      2274      2266      2269      2272      2275
      2267      2266      2269      2270      2267      2266      2269      2271
      2267      2266      2269      2272      2268      2266      2269      2270
      2268      2266      2269      2271      2268      2266      2269      2272
      2269      2272      2275      2276      2269      2272      2275      2277
      2269      2272      2275      2278      2270      2269      2272      2273
      2270      2269      2272      2274      2270      2269      2272      2275
      2271      2269      2272      2273      2271      2269      2272      2274
      2271      2269      2272      2275      2272      2275      2278      2279
      2272      2275      2278      2280      2273      2272      2275      2276
      2273      2272      2275      2277      2273      2272      2275      2278
      2274      2272      2275      2276      2274      2272      2275      2277
      2274      2272      2275      2278      2275      2278      2280      2281
      2275      2278      2280      2282      2276      2275      2278      2279
      2276      2275      2278      2280      2277      2275      2278      2279
      2277      2275      2278      2280      2278      2280      2282      2283
      2278      2280      2282      2284      2278      2280      2282      2285
      2279      2278      2280      2281      2279      2278      2280      2282
      2280      2282      2285      2286      2280      2282      2285      2287
      2280      2282      2285      2288      2281      2280      2282      2283
      2281      2280      2282      2284      2281      2280      2282      2285
      2282      2285      2288      2289      2282      2285      2288      2290
      2282      2285      2288      2291      2283      2282      2285      2286
      2283      2282      2285      2287      2283      2282      2285      2288
      2284      2282      2285      2286      2284      2282      2285      2287
      2284      2282      2285      2288      2285      2288      2291      2292
      2285      2288      2291      2293      2285      2288      2291      2294
      2286      2285      2288      2289      2286      2285      2288      2290
      2286      2285      2288      2291      2287      2285      2288      2289
      2287      2285      2288      2290      2287      2285      2288      2291
      2288      2291      2294      2295      2288      2291      2294      2296
      2288      2291      2294      2297      2289      2288      2291      2292
      2289      2288      2291      2293      2289      2288      2291      2294
      2290      2288      2291      2292      2290      2288      2291      2293
      2290      2288      2291      2294      2291      2294      2297      2298
      2291      2294      2297      2299      2291      2294      2297      2300
      2292      2291      2294      2295      2292      2291      2294      2296
      2292      2291      2294      2297      2293      2291      2294      2295
      2293      2291      2294      2296      2293      2291      2294      2297
      2294      2297      2300      2301      2294      2297      2300      2302
      2294      2297      2300      2303      2295      2294      2297      2298
      2295      2294      2297      2299      2295      2294      2297      2300
      2296      2294      2297      2298      2296      2294      2297      2299
      2296      2294      2297      2300      2297      2300      2303      2304
      2297      2300      2303      2305      2297      2300      2303      2306
      2298      2297      2300      2301      2298      2297      2300      2302
      2298      2297      2300      2303      2299      2297      2300      2301
      2299      2297      2300      2302      2299      2297      2300      2303
      2301      2300      2303      2304      2301      2300      2303      2305
      2301      2300      2303      2306      2302      2300      2303      2304
      2302      2300      2303      2305      2302      2300      2303      2306
      2307      2320      2323      2324      2307      2320      2323      2325
      2307      2320      2323      2330      2308      2307      2312      2313
      2308      2307      2312      2314      2308      2307      2312      2315
      2308      2307      2316      2317      2308      2307      2316      2318
      2308      2307      2316      2319      2308      2307      2320      2321
      2308      2307      2320      2322      2308      2307      2320      2323
      2309      2308      2307      2312      2309      2308      2307      2316
      2309      2308      2307      2320      2310      2308      2307      2312
      2310      2308      2307      2316      2310      2308      2307      2320
      2311      2308      2307      2312      2311      2308      2307      2316
      2311      2308      2307      2320      2312      2307      2316      2317
      2312      2307      2316      2318      2312      2307      2316      2319
      2312      2307      2320      2321      2312      2307      2320      2322
      2312      2307      2320      2323      2313      2312      2307      2316
      2313      2312      2307      2320      2314      2312      2307      2316
      2314      2312      2307      2320      2315      2312      2307      2316
      2315      2312      2307      2320      2316      2307      2320      2321
      2316      2307      2320      2322      2316      2307      2320      2323
      2317      2316      2307      2320      2318      2316      2307      2320
      2319      2316      2307      2320      2320      2323      2330      2326
      2321      2320      2323      2324      2321      2320      2323      2325
      2321      2320      2323      2330      2322      2320      2323      2324
      2322      2320      2323      2325      2322      2320      2323      2330
      2323      2330      2326      2327      2323      2330      2326      2328
      2323      2330      2326      2329      2324      2323      2330      2326
      2325      2323      2330      2326      2326      2329      2331      2332
      2326      2329      2331      2333      2326      2329      2331      2336
      2327      2326      2329      2331      2328      2326      2329      2331
      2329      2331      2336      2334      2329      2331      2336      2337
      2329      2331      2336      2338      2330      2326      2329      2331
      2331      2336      2334      2335      2331      2336      2334      2386
      2331      2336      2338      2339      2331      2336      2338      2340
      2331      2336      2338      2342      2332      2331      2336      2334
      2332      2331      2336      2337      2332      2331      2336      2338
      2333      2331      2336      2334      2333      2331      2336      2337
      2333      2331      2336      2338      2334      2336      2338      2339
      2334      2336      2338      2340      2334      2336      2338      2342
      2334      2386      2388      2389      2334      2386      2388      2390
      2334      2386      2388      2391      2335      2334      2336      2337
      2335      2334      2336      2338      2335      2334      2386      2387
      2335      2334      2386      2388      2336      2334      2386      2387
      2336      2334      2386      2388      2336      2338      2340      2341
      2336      2338      2342      2343      2336      2338      2342      2344
      2337      2336      2334      2386      2337      2336      2338      2339
      2337      2336      2338      2340      2337      2336      2338      2342
      2338      2336      2334      2386      2338      2342      2344      2345
      2338      2342      2344      2346      2339      2338      2340      2341
      2339      2338      2342      2343      2339      2338      2342      2344
      2340      2338      2342      2343      2340      2338      2342      2344
      2341      2340      2338      2342      2342      2344      2346      2347
      2342      2344      2346      2348      2342      2344      2346      2349
      2343      2342      2344      2345      2343      2342      2344      2346
      2344      2346      2349      2350      2344      2346      2349      2351
      2344      2346      2349      2352      2345      2344      2346      2347
      2345      2344      2346      2348      2345      2344      2346      2349
      2346      2349      2352      2353      2346      2349      2352      2354
      2346      2349      2352      2355      2347      2346      2349      2350
      2347      2346      2349      2351      2347      2346      2349      2352
      2348      2346      2349      2350      2348      2346      2349      2351
      2348      2346      2349      2352      2349      2352      2355      2356
      2349      2352      2355      2357      2349      2352      2355      2358
      2350      2349      2352      2353      2350      2349      2352      2354
      2350      2349      2352      2355      2351      2349      2352      2353
      2351      2349      2352      2354      2351      2349      2352      2355
      2352      2355      2358      2359      2352      2355      2358      2360
      2352      2355      2358      2361      2353      2352      2355      2356
      2353      2352      2355      2357      2353      2352      2355      2358
      2354      2352      2355      2356      2354      2352      2355      2357
      2354      2352      2355      2358      2355      2358      2361      2362
      2355      2358      2361      2363      2355      2358      2361      2364
      2356      2355      2358      2359      2356      2355      2358      2360
      2356      2355      2358      2361      2357      2355      2358      2359
      2357      2355      2358      2360      2357      2355      2358      2361
      2358      2361      2364      2365      2358      2361      2364      2366
      2358      2361      2364      2367      2359      2358      2361      2362
      2359      2358      2361      2363      2359      2358      2361      2364
      2360      2358      2361      2362      2360      2358      2361      2363
      2360      2358      2361      2364      2361      2364      2367      2368
      2361      2364      2367      2369      2361      2364      2367      2370
      2362      2361      2364      2365      2362      2361      2364      2366
      2362      2361      2364      2367      2363      2361      2364      2365
      2363      2361      2364      2366      2363      2361      2364      2367
      2364      2367      2370      2371      2364      2367      2370      2372
      2364      2367      2370      2373      2365      2364      2367      2368
      2365      2364      2367      2369      2365      2364      2367      2370
      2366      2364      2367      2368      2366      2364      2367      2369
      2366      2364      2367      2370      2367      2370      2373      2374
      2367      2370      2373      2375      2367      2370      2373      2376
      2368      2367      2370      2371      2368      2367      2370      2372
      2368      2367      2370      2373      2369      2367      2370      2371
      2369      2367      2370      2372      2369      2367      2370      2373
      2370      2373      2376      2377      2370      2373      2376      2378
      2370      2373      2376      2379      2371      2370      2373      2374
      2371      2370      2373      2375      2371      2370      2373      2376
      2372      2370      2373      2374      2372      2370      2373      2375
      2372      2370      2373      2376      2373      2376      2379      2380
      2373      2376      2379      2381      2373      2376      2379      2382
      2374      2373      2376      2377      2374      2373      2376      2378
      2374      2373      2376      2379      2375      2373      2376      2377
      2375      2373      2376      2378      2375      2373      2376      2379
      2376      2379      2382      2383      2376      2379      2382      2384
      2376      2379      2382      2385      2377      2376      2379      2380
      2377      2376      2379      2381      2377      2376      2379      2382
      2378      2376      2379      2380      2378      2376      2379      2381
      2378      2376      2379      2382      2380      2379      2382      2383
      2380      2379      2382      2384      2380      2379      2382      2385
      2381      2379      2382      2383      2381      2379      2382      2384
      2381      2379      2382      2385      2386      2388      2391      2392
      2386      2388      2391      2393      2386      2388      2391      2394
      2387      2386      2388      2389      2387      2386      2388      2390
      2387      2386      2388      2391      2388      2391      2394      2395
      2388      2391      2394      2396      2388      2391      2394      2397
      2389      2388      2391      2392      2389      2388      2391      2393
      2389      2388      2391      2394      2390      2388      2391      2392
      2390      2388      2391      2393      2390      2388      2391      2394
      2391      2394      2397      2398      2391      2394      2397      2399
      2391      2394      2397      2400      2392      2391      2394      2395
      2392      2391      2394      2396      2392      2391      2394      2397
      2393      2391      2394      2395      2393      2391      2394      2396
      2393      2391      2394      2397      2394      2397      2400      2401
      2394      2397      2400      2402      2394      2397      2400      2403
      2395      2394      2397      2398      2395      2394      2397      2399
      2395      2394      2397      2400      2396      2394      2397      2398
      2396      2394      2397      2399      2396      2394      2397      2400
      2397      2400      2403      2404      2397      2400      2403      2405
      2397      2400      2403      2406      2398      2397      2400      2401
      2398      2397      2400      2402      2398      2397      2400      2403
      2399      2397      2400      2401      2399      2397      2400      2402
      2399      2397      2400      2403      2400      2403      2406      2407
      2400      2403      2406      2408      2400      2403      2406      2409
      2401      2400      2403      2404      2401      2400      2403      2405
      2401      2400      2403      2406      2402      2400      2403      2404
      2402      2400      2403      2405      2402      2400      2403      2406
      2403      2406      2409      2410      2403      2406      2409      2411
      2403      2406      2409      2412      2404      2403      2406      2407
      2404      2403      2406      2408      2404      2403      2406      2409
      2405      2403      2406      2407      2405      2403      2406      2408
      2405      2403      2406      2409      2406      2409      2412      2413
      2406      2409      2412      2414      2406      2409      2412      2415
      2407      2406      2409      2410      2407      2406      2409      2411
      2407      2406      2409      2412      2408      2406      2409      2410
      2408      2406      2409      2411      2408      2406      2409      2412
      2409      2412      2415      2416      2409      2412      2415      2417
      2409      2412      2415      2418      2410      2409      2412      2413
      2410      2409      2412      2414      2410      2409      2412      2415
      2411      2409      2412      2413      2411      2409      2412      2414
      2411      2409      2412      2415      2412      2415      2418      2419
      2412      2415      2418      2420      2412      2415      2418      2421
      2413      2412      2415      2416      2413      2412      2415      2417
      2413      2412      2415      2418      2414      2412      2415      2416
      2414      2412      2415      2417      2414      2412      2415      2418
      2415      2418      2421      2422      2415      2418      2421      2423
      2415      2418      2421      2424      2416      2415      2418      2419
      2416      2415      2418      2420      2416      2415      2418      2421
      2417      2415      2418      2419      2417      2415      2418      2420
      2417      2415      2418      2421      2418      2421      2424      2425
      2418      2421      2424      2426      2418      2421      2424      2427
      2419      2418      2421      2422      2419      2418      2421      2423
      2419      2418      2421      2424      2420      2418      2421      2422
      2420      2418      2421      2423      2420      2418      2421      2424
      2421      2424      2427      2428      2421      2424      2427      2429
      2421      2424      2427      2430      2422      2421      2424      2425
      2422      2421      2424      2426      2422      2421      2424      2427
      2423      2421      2424      2425      2423      2421      2424      2426
      2423      2421      2424      2427      2424      2427      2430      2431
      2424      2427      2430      2432      2424      2427      2430      2433
      2425      2424      2427      2428      2425      2424      2427      2429
      2425      2424      2427      2430      2426      2424      2427      2428
      2426      2424      2427      2429      2426      2424      2427      2430
      2427      2430      2433      2434      2427      2430      2433      2435
      2427      2430      2433      2436      2428      2427      2430      2431
      2428      2427      2430      2432      2428      2427      2430      2433
      2429      2427      2430      2431      2429      2427      2430      2432
      2429      2427      2430      2433      2430      2433      2436      2437
      2430      2433      2436      2438      2430      2433      2436      2439
      2431      2430      2433      2434      2431      2430      2433      2435
      2431      2430      2433      2436      2432      2430      2433      2434
      2432      2430      2433      2435      2432      2430      2433      2436
      2433      2436      2439      2440      2433      2436      2439      2441
      2433      2436      2439      2442      2434      2433      2436      2437
      2434      2433      2436      2438      2434      2433      2436      2439
      2435      2433      2436      2437      2435      2433      2436      2438
      2435      2433      2436      2439      2436      2439      2442      2443
      2436      2439      2442      2444      2436      2439      2442      2445
      2437      2436      2439      2440      2437      2436      2439      2441
      2437      2436      2439      2442      2438      2436      2439      2440
      2438      2436      2439      2441      2438      2436      2439      2442
      2439      2442      2445      2446      2439      2442      2445      2447
      2439      2442      2445      2448      2440      2439      2442      2443
      2440      2439      2442      2444      2440      2439      2442      2445
      2441      2439      2442      2443      2441      2439      2442      2444
      2441      2439      2442      2445      2442      2445      2448      2449
      2442      2445      2448      2450      2442      2445      2448      2451
      2443      2442      2445      2446      2443      2442      2445      2447
      2443      2442      2445      2448      2444      2442      2445      2446
      2444      2442      2445      2447      2444      2442      2445      2448
      2445      2448      2451      2452      2445      2448      2451      2453
      2445      2448      2451      2454      2446      2445      2448      2449
      2446      2445      2448      2450      2446      2445      2448      2451
      2447      2445      2448      2449      2447      2445      2448      2450
      2447      2445      2448      2451      2449      2448      2451      2452
      2449      2448      2451      2453      2449      2448      2451      2454
      2450      2448      2451      2452      2450      2448      2451      2453
      2450      2448      2451      2454      2455      2459      2462      2463
      2455      2459      2462      2464      2455      2459      2462      2469
      2456      2455      2459      2460      2456      2455      2459      2461
      2456      2455      2459      2462      2457      2455      2459      2460
      2457      2455      2459      2461      2457      2455      2459      2462
      2458      2455      2459      2460      2458      2455      2459      2461
      2458      2455      2459      2462      2459      2462      2469      2465
      2460      2459      2462      2463      2460      2459      2462      2464
      2460      2459      2462      2469      2461      2459      2462      2463
      2461      2459      2462      2464      2461      2459      2462      2469
      2462      2469      2465      2466      2462      2469      2465      2467
      2462      2469      2465      2468      2463      2462      2469      2465
      2464      2462      2469      2465      2465      2468      2470      2471
      2465      2468      2470      2472      2465      2468      2470      2473
      2466      2465      2468      2470      2467      2465      2468      2470
      2468      2470      2473      2474      2468      2470      2473      2475
      2468      2470      2473      2481      2469      2465      2468      2470
      2470      2473      2475      2476      2470      2473      2481      2482
      2470      2473      2481      2483      2470      2473      2481      2484
      2471      2470      2473      2474      2471      2470      2473      2475
      2471      2470      2473      2481      2472      2470      2473      2474
      2472      2470      2473      2475      2472      2470      2473      2481
      2473      2475      2476      2477      2473      2475      2476      2478
      2473      2481      2484      2485      2474      2473      2475      2476
      2474      2473      2481      2482      2474      2473      2481      2483
      2474      2473      2481      2484      2475      2473      2481      2482
      2475      2473      2481      2483      2475      2473      2481      2484
      2475      2476      2478      2479      2475      2476      2478      2480
      2475      2476      2478      2490      2476      2475      2473      2481
      2476      2478      2490      2491      2476      2478      2490      2492
      2476      2478      2490      2493      2477      2476      2478      2479
      2477      2476      2478      2480      2477      2476      2478      2490
      2478      2490      2493      2494      2478      2490      2493      2495
      2478      2490      2493      2496      2479      2478      2490      2491
      2479      2478      2490      2492      2479      2478      2490      2493
      2480      2478      2490      2491      2480      2478      2490      2492
      2480      2478      2490      2493      2481      2484      2485      2486
      2481      2484      2485      2487      2482      2481      2484      2485
      2483      2481      2484      2485      2484      2485      2487      2488
      2484      2485      2487      2489      2484      2485      2487      2537
      2485      2487      2537      2538      2485      2487      2537      2539
      2485      2487      2537      2540      2486      2485      2487      2488
      2486      2485      2487      2489      2486      2485      2487      2537
      2487      2537      2540      2541      2487      2537      2540      2542
      2487      2537      2540      2543      2488      2487      2537      2538
      2488      2487      2537      2539      2488      2487      2537      2540
      2489      2487      2537      2538      2489      2487      2537      2539
      2489      2487      2537      2540      2490      2493      2496      2497
      2490      2493      2496      2498      2490      2493      2496      2499
      2491      2490      2493      2494      2491      2490      2493      2495
      2491      2490      2493      2496      2492      2490      2493      2494
      2492      2490      2493      2495      2492      2490      2493      2496
      2493      2496      2499      2500      2493      2496      2499      2501
      2493      2496      2499      2502      2494      2493      2496      2497
      2494      2493      2496      2498      2494      2493      2496      2499
      2495      2493      2496      2497      2495      2493      2496      2498
      2495      2493      2496      2499      2496      2499      2502      2503
      2496      2499      2502      2504      2496      2499      2502      2505
      2497      2496      2499      2500      2497      2496      2499      2501
      2497      2496      2499      2502      2498      2496      2499      2500
      2498      2496      2499      2501      2498      2496      2499      2502
      2499      2502      2505      2506      2499      2502      2505      2507
      2499      2502      2505      2508      2500      2499      2502      2503
      2500      2499      2502      2504      2500      2499      2502      2505
      2501      2499      2502      2503      2501      2499      2502      2504
      2501      2499      2502      2505      2502      2505      2508      2509
      2502      2505      2508      2510      2503      2502      2505      2506
      2503      2502      2505      2507      2503      2502      2505      2508
      2504      2502      2505      2506      2504      2502      2505      2507
      2504      2502      2505      2508      2505      2508      2510      2511
      2505      2508      2510      2512      2506      2505      2508      2509
      2506      2505      2508      2510      2507      2505      2508      2509
      2507      2505      2508      2510      2508      2510      2512      2513
      2508      2510      2512      2514      2508      2510      2512      2515
      2509      2508      2510      2511      2509      2508      2510      2512
      2510      2512      2515      2516      2510      2512      2515      2517
      2510      2512      2515      2518      2511      2510      2512      2513
      2511      2510      2512      2514      2511      2510      2512      2515
      2512      2515      2518      2519      2512      2515      2518      2520
      2512      2515      2518      2521      2513      2512      2515      2516
      2513      2512      2515      2517      2513      2512      2515      2518
      2514      2512      2515      2516      2514      2512      2515      2517
      2514      2512      2515      2518      2515      2518      2521      2522
      2515      2518      2521      2523      2515      2518      2521      2524
      2516      2515      2518      2519      2516      2515      2518      2520
      2516      2515      2518      2521      2517      2515      2518      2519
      2517      2515      2518      2520      2517      2515      2518      2521
      2518      2521      2524      2525      2518      2521      2524      2526
      2518      2521      2524      2527      2519      2518      2521      2522
      2519      2518      2521      2523      2519      2518      2521      2524
      2520      2518      2521      2522      2520      2518      2521      2523
      2520      2518      2521      2524      2521      2524      2527      2528
      2521      2524      2527      2529      2521      2524      2527      2530
      2522      2521      2524      2525      2522      2521      2524      2526
      2522      2521      2524      2527      2523      2521      2524      2525
      2523      2521      2524      2526      2523      2521      2524      2527
      2524      2527      2530      2531      2524      2527      2530      2532
      2524      2527      2530      2533      2525      2524      2527      2528
      2525      2524      2527      2529      2525      2524      2527      2530
      2526      2524      2527      2528      2526      2524      2527      2529
      2526      2524      2527      2530      2527      2530      2533      2534
      2527      2530      2533      2535      2527      2530      2533      2536
      2528      2527      2530      2531      2528      2527      2530      2532
      2528      2527      2530      2533      2529      2527      2530      2531
      2529      2527      2530      2532      2529      2527      2530      2533
      2531      2530      2533      2534      2531      2530      2533      2535
      2531      2530      2533      2536      2532      2530      2533      2534
      2532      2530      2533      2535      2532      2530      2533      2536
      2537      2540      2543      2544      2537      2540      2543      2545
      2537      2540      2543      2546      2538      2537      2540      2541
      2538      2537      2540      2542      2538      2537      2540      2543
      2539      2537      2540      2541      2539      2537      2540      2542
      2539      2537      2540      2543      2540      2543      2546      2547
      2540      2543      2546      2548      2540      2543      2546      2549
      2541      2540      2543      2544      2541      2540      2543      2545
      2541      2540      2543      2546      2542      2540      2543      2544
      2542      2540      2543      2545      2542      2540      2543      2546
      2543      2546      2549      2550      2543      2546      2549      2551
      2543      2546      2549      2552      2544      2543      2546      2547
      2544      2543      2546      2548      2544      2543      2546      2549
      2545      2543      2546      2547      2545      2543      2546      2548
      2545      2543      2546      2549      2546      2549      2552      2553
      2546      2549      2552      2554      2546      2549      2552      2555
      2547      2546      2549      2550      2547      2546      2549      2551
      2547      2546      2549      2552      2548      2546      2549      2550
      2548      2546      2549      2551      2548      2546      2549      2552
      2549      2552      2555      2556      2549      2552      2555      2557
      2550      2549      2552      2553      2550      2549      2552      2554
      2550      2549      2552      2555      2551      2549      2552      2553
      2551      2549      2552      2554      2551      2549      2552      2555
      2552      2555      2557      2558      2552      2555      2557      2559
      2553      2552      2555      2556      2553      2552      2555      2557
      2554      2552      2555      2556      2554      2552      2555      2557
      2555      2557      2559      2560      2555      2557      2559      2561
      2555      2557      2559      2562      2556      2555      2557      2558
      2556      2555      2557      2559      2557      2559      2562      2563
      2557      2559      2562      2564      2557      2559      2562      2565
      2558      2557      2559      2560      2558      2557      2559      2561
      2558      2557      2559      2562      2559      2562      2565      2566
      2559      2562      2565      2567      2559      2562      2565      2568
      2560      2559      2562      2563      2560      2559      2562      2564
      2560      2559      2562      2565      2561      2559      2562      2563
      2561      2559      2562      2564      2561      2559      2562      2565
      2562      2565      2568      2569      2562      2565      2568      2570
      2562      2565      2568      2571      2563      2562      2565      2566
      2563      2562      2565      2567      2563      2562      2565      2568
      2564      2562      2565      2566      2564      2562      2565      2567
      2564      2562      2565      2568      2565      2568      2571      2572
      2565      2568      2571      2573      2565      2568      2571      2574
      2566      2565      2568      2569      2566      2565      2568      2570
      2566      2565      2568      2571      2567      2565      2568      2569
      2567      2565      2568      2570      2567      2565      2568      2571
      2568      2571      2574      2575      2568      2571      2574      2576
      2568      2571      2574      2577      2569      2568      2571      2572
      2569      2568      2571      2573      2569      2568      2571      2574
      2570      2568      2571      2572      2570      2568      2571      2573
      2570      2568      2571      2574      2571      2574      2577      2578
      2571      2574      2577      2579      2571      2574      2577      2580
      2572      2571      2574      2575      2572      2571      2574      2576
      2572      2571      2574      2577      2573      2571      2574      2575
      2573      2571      2574      2576      2573      2571      2574      2577
      2574      2577      2580      2581      2574      2577      2580      2582
      2574      2577      2580      2583      2575      2574      2577      2578
      2575      2574      2577      2579      2575      2574      2577      2580
      2576      2574      2577      2578      2576      2574      2577      2579
      2576      2574      2577      2580      2578      2577      2580      2581
      2578      2577      2580      2582      2578      2577      2580      2583
      2579      2577      2580      2581      2579      2577      2580      2582
      2579      2577      2580      2583      2584      2585      2600      2601
      2584      2585      2600      2602      2584      2585      2600      2606
      2585      2584      2588      2589      2585      2584      2588      2590
      2585      2584      2588      2591      2585      2584      2592      2593
      2585      2584      2592      2594      2585      2584      2592      2595
      2585      2584      2596      2597      2585      2584      2596      2598
      2585      2584      2596      2599      2585      2600      2606      2603
      2586      2585      2584      2588      2586      2585      2584      2592
      2586      2585      2584      2596      2586      2585      2600      2601
      2586      2585      2600      2602      2586      2585      2600      2606
      2587      2585      2584      2588      2587      2585      2584      2592
      2587      2585      2584      2596      2587      2585      2600      2601
      2587      2585      2600      2602      2587      2585      2600      2606
      2588      2584      2585      2600      2588      2584      2592      2593
      2588      2584      2592      2594      2588      2584      2592      2595
      2588      2584      2596      2597      2588      2584      2596      2598
      2588      2584      2596      2599      2589      2588      2584      2592
      2589      2588      2584      2596      2590      2588      2584      2592
      2590      2588      2584      2596      2591      2588      2584      2592
      2591      2588      2584      2596      2592      2584      2585      2600
      2592      2584      2596      2597      2592      2584      2596      2598
      2592      2584      2596      2599      2593      2592      2584      2596
      2594      2592      2584      2596      2595      2592      2584      2596
      2596      2584      2585      2600      2600      2606      2603      2604
      2600      2606      2603      2605      2600      2606      2603      2607
      2601      2600      2606      2603      2602      2600      2606      2603
      2603      2607      2608      2609      2603      2607      2608      2610
      2603      2607      2608      2611      2604      2603      2607      2608
      2605      2603      2607      2608      2606      2603      2607      2608
      2607      2608      2611      2612      2607      2608      2611      2613
      2607      2608      2611      2619      2608      2611      2613      2614
      2608      2611      2619      2620      2608      2611      2619      2621
      2608      2611      2619      2622      2609      2608      2611      2612
      2609      2608      2611      2613      2609      2608      2611      2619
      2610      2608      2611      2612      2610      2608      2611      2613
      2610      2608      2611      2619      2611      2613      2614      2615
      2611      2613      2614      2616      2611      2619      2622      2623
      2612      2611      2613      2614      2612      2611      2619      2620
      2612      2611      2619      2621      2612      2611      2619      2622
      2613      2611      2619      2620      2613      2611      2619      2621
      2613      2611      2619      2622      2613      2614      2616      2617
      2613      2614      2616      2618      2613      2614      2616      2628
      2614      2613      2611      2619      2614      2616      2628      2629
      2614      2616      2628      2630      2614      2616      2628      2631
      2615      2614      2616      2617      2615      2614      2616      2618
      2615      2614      2616      2628      2616      2628      2631      2632
      2616      2628      2631      2633      2616      2628      2631      2634
      2617      2616      2628      2629      2617      2616      2628      2630
      2617      2616      2628      2631      2618      2616      2628      2629
      2618      2616      2628      2630      2618      2616      2628      2631
      2619      2622      2623      2624      2619      2622      2623      2625
      2620      2619      2622      2623      2621      2619      2622      2623
      2622      2623      2625      2626      2622      2623      2625      2627
      2622      2623      2625      2675      2623      2625      2675      2676
      2623      2625      2675      2677      2623      2625      2675      2678
      2624      2623      2625      2626      2624      2623      2625      2627
      2624      2623      2625      2675      2625      2675      2678      2679
      2625      2675      2678      2680      2625      2675      2678      2681
      2626      2625      2675      2676      2626      2625      2675      2677
      2626      2625      2675      2678      2627      2625      2675      2676
      2627      2625      2675      2677      2627      2625      2675      2678
      2628      2631      2634      2635      2628      2631      2634      2636
      2628      2631      2634      2637      2629      2628      2631      2632
      2629      2628      2631      2633      2629      2628      2631      2634
      2630      2628      2631      2632      2630      2628      2631      2633
      2630      2628      2631      2634      2631      2634      2637      2638
      2631      2634      2637      2639      2631      2634      2637      2640
      2632      2631      2634      2635      2632      2631      2634      2636
      2632      2631      2634      2637      2633      2631      2634      2635
      2633      2631      2634      2636      2633      2631      2634      2637
      2634      2637      2640      2641      2634      2637      2640      2642
      2634      2637      2640      2643      2635      2634      2637      2638
      2635      2634      2637      2639      2635      2634      2637      2640
      2636      2634      2637      2638      2636      2634      2637      2639
      2636      2634      2637      2640      2637      2640      2643      2644
      2637      2640      2643      2645      2637      2640      2643      2646
      2638      2637      2640      2641      2638      2637      2640      2642
      2638      2637      2640      2643      2639      2637      2640      2641
      2639      2637      2640      2642      2639      2637      2640      2643
      2640      2643      2646      2647      2640      2643      2646      2648
      2641      2640      2643      2644      2641      2640      2643      2645
      2641      2640      2643      2646      2642      2640      2643      2644
      2642      2640      2643      2645      2642      2640      2643      2646
      2643      2646      2648      2649      2643      2646      2648      2650
      2644      2643      2646      2647      2644      2643      2646      2648
      2645      2643      2646      2647      2645      2643      2646      2648
      2646      2648      2650      2651      2646      2648      2650      2652
      2646      2648      2650      2653      2647      2646      2648      2649
      2647      2646      2648      2650      2648      2650      2653      2654
      2648      2650      2653      2655      2648      2650      2653      2656
      2649      2648      2650      2651      2649      2648      2650      2652
      2649      2648      2650      2653      2650      2653      2656      2657
      2650      2653      2656      2658      2650      2653      2656      2659
      2651      2650      2653      2654      2651      2650      2653      2655
      2651      2650      2653      2656      2652      2650      2653      2654
      2652      2650      2653      2655      2652      2650      2653      2656
      2653      2656      2659      2660      2653      2656      2659      2661
      2653      2656      2659      2662      2654      2653      2656      2657
      2654      2653      2656      2658      2654      2653      2656      2659
      2655      2653      2656      2657      2655      2653      2656      2658
      2655      2653      2656      2659      2656      2659      2662      2663
      2656      2659      2662      2664      2656      2659      2662      2665
      2657      2656      2659      2660      2657      2656      2659      2661
      2657      2656      2659      2662      2658      2656      2659      2660
      2658      2656      2659      2661      2658      2656      2659      2662
      2659      2662      2665      2666      2659      2662      2665      2667
      2659      2662      2665      2668      2660      2659      2662      2663
      2660      2659      2662      2664      2660      2659      2662      2665
      2661      2659      2662      2663      2661      2659      2662      2664
      2661      2659      2662      2665      2662      2665      2668      2669
      2662      2665      2668      2670      2662      2665      2668      2671
      2663      2662      2665      2666      2663      2662      2665      2667
      2663      2662      2665      2668      2664      2662      2665      2666
      2664      2662      2665      2667      2664      2662      2665      2668
      2665      2668      2671      2672      2665      2668      2671      2673
      2665      2668      2671      2674      2666      2665      2668      2669
      2666      2665      2668      2670      2666      2665      2668      2671
      2667      2665      2668      2669      2667      2665      2668      2670
      2667      2665      2668      2671      2669      2668      2671      2672
      2669      2668      2671      2673      2669      2668      2671      2674
      2670      2668      2671      2672      2670      2668      2671      2673
      2670      2668      2671      2674      2675      2678      2681      2682
      2675      2678      2681      2683      2675      2678      2681      2684
      2676      2675      2678      2679      2676      2675      2678      2680
      2676      2675      2678      2681      2677      2675      2678      2679
      2677      2675      2678      2680      2677      2675      2678      2681
      2678      2681      2684      2685      2678      2681      2684      2686
      2678      2681      2684      2687      2679      2678      2681      2682
      2679      2678      2681      2683      2679      2678      2681      2684
      2680      2678      2681      2682      2680      2678      2681      2683
      2680      2678      2681      2684      2681      2684      2687      2688
      2681      2684      2687      2689      2681      2684      2687      2690
      2682      2681      2684      2685      2682      2681      2684      2686
      2682      2681      2684      2687      2683      2681      2684      2685
      2683      2681      2684      2686      2683      2681      2684      2687
      2684      2687      2690      2691      2684      2687      2690      2692
      2684      2687      2690      2693      2685      2684      2687      2688
      2685      2684      2687      2689      2685      2684      2687      2690
      2686      2684      2687      2688      2686      2684      2687      2689
      2686      2684      2687      2690      2687      2690      2693      2694
      2687      2690      2693      2695      2688      2687      2690      2691
      2688      2687      2690      2692      2688      2687      2690      2693
      2689      2687      2690      2691      2689      2687      2690      2692
      2689      2687      2690      2693      2690      2693      2695      2696
      2690      2693      2695      2697      2691      2690      2693      2694
      2691      2690      2693      2695      2692      2690      2693      2694
      2692      2690      2693      2695      2693      2695      2697      2698
      2693      2695      2697      2699      2693      2695      2697      2700
      2694      2693      2695      2696      2694      2693      2695      2697
      2695      2697      2700      2701      2695      2697      2700      2702
      2695      2697      2700      2703      2696      2695      2697      2698
      2696      2695      2697      2699      2696      2695      2697      2700
      2697      2700      2703      2704      2697      2700      2703      2705
      2697      2700      2703      2706      2698      2697      2700      2701
      2698      2697      2700      2702      2698      2697      2700      2703
      2699      2697      2700      2701      2699      2697      2700      2702
      2699      2697      2700      2703      2700      2703      2706      2707
      2700      2703      2706      2708      2700      2703      2706      2709
      2701      2700      2703      2704      2701      2700      2703      2705
      2701      2700      2703      2706      2702      2700      2703      2704
      2702      2700      2703      2705      2702      2700      2703      2706
      2703      2706      2709      2710      2703      2706      2709      2711
      2703      2706      2709      2712      2704      2703      2706      2707
      2704      2703      2706      2708      2704      2703      2706      2709
      2705      2703      2706      2707      2705      2703      2706      2708
      2705      2703      2706      2709      2706      2709      2712      2713
      2706      2709      2712      2714      2706      2709      2712      2715
      2707      2706      2709      2710      2707      2706      2709      2711
      2707      2706      2709      2712      2708      2706      2709      2710
      2708      2706      2709      2711      2708      2706      2709      2712
      2709      2712      2715      2716      2709      2712      2715      2717
      2709      2712      2715      2718      2710      2709      2712      2713
      2710      2709      2712      2714      2710      2709      2712      2715
      2711      2709      2712      2713      2711      2709      2712      2714
      2711      2709      2712      2715      2712      2715      2718      2719
      2712      2715      2718      2720      2712      2715      2718      2721
      2713      2712      2715      2716      2713      2712      2715      2717
      2713      2712      2715      2718      2714      2712      2715      2716
      2714      2712      2715      2717      2714      2712      2715      2718
      2716      2715      2718      2719      2716      2715      2718      2720
      2716      2715      2718      2721      2717      2715      2718      2719
      2717      2715      2718      2720      2717      2715      2718      2721
      2722      2723      2738      2739      2722      2723      2738      2740
      2722      2723      2738      2744      2723      2722      2726      2727
      2723      2722      2726      2728      2723      2722      2726      2729
      2723      2722      2730      2731      2723      2722      2730      2732
      2723      2722      2730      2733      2723      2722      2734      2735
      2723      2722      2734      2736      2723      2722      2734      2737
      2723      2738      2744      2741      2724      2723      2722      2726
      2724      2723      2722      2730      2724      2723      2722      2734
      2724      2723      2738      2739      2724      2723      2738      2740
      2724      2723      2738      2744      2725      2723      2722      2726
      2725      2723      2722      2730      2725      2723      2722      2734
      2725      2723      2738      2739      2725      2723      2738      2740
      2725      2723      2738      2744      2726      2722      2723      2738
      2726      2722      2730      2731      2726      2722      2730      2732
      2726      2722      2730      2733      2726      2722      2734      2735
      2726      2722      2734      2736      2726      2722      2734      2737
      2727      2726      2722      2730      2727      2726      2722      2734
      2728      2726      2722      2730      2728      2726      2722      2734
      2729      2726      2722      2730      2729      2726      2722      2734
      2730      2722      2723      2738      2730      2722      2734      2735
      2730      2722      2734      2736      2730      2722      2734      2737
      2731      2730      2722      2734      2732      2730      2722      2734
      2733      2730      2722      2734      2734      2722      2723      2738
      2738      2744      2741      2742      2738      2744      2741      2743
      2738      2744      2741      2745      2739      2738      2744      2741
      2740      2738      2744      2741      2741      2745      2746      2747
      2741      2745      2746      2748      2741      2745      2746      2749
      2742      2741      2745      2746      2743      2741      2745      2746
      2744      2741      2745      2746      2745      2746      2749      2750
      2745      2746      2749      2751      2745      2746      2749      2757
      2746      2749      2751      2752      2746      2749      2757      2758
      2746      2749      2757      2759      2746      2749      2757      2760
      2747      2746      2749      2750      2747      2746      2749      2751
      2747      2746      2749      2757      2748      2746      2749      2750
      2748      2746      2749      2751      2748      2746      2749      2757
      2749      2751      2752      2753      2749      2751      2752      2754
      2749      2757      2760      2761      2750      2749      2751      2752
      2750      2749      2757      2758      2750      2749      2757      2759
      2750      2749      2757      2760      2751      2749      2757      2758
      2751      2749      2757      2759      2751      2749      2757      2760
      2751      2752      2754      2755      2751      2752      2754      2756
      2751      2752      2754      2766      2752      2751      2749      2757
      2752      2754      2766      2767      2752      2754      2766      2768
      2752      2754      2766      2769      2753      2752      2754      2755
      2753      2752      2754      2756      2753      2752      2754      2766
      2754      2766      2769      2770      2754      2766      2769      2771
      2754      2766      2769      2772      2755      2754      2766      2767
      2755      2754      2766      2768      2755      2754      2766      2769
      2756      2754      2766      2767      2756      2754      2766      2768
      2756      2754      2766      2769      2757      2760      2761      2762
      2757      2760      2761      2763      2758      2757      2760      2761
      2759      2757      2760      2761      2760      2761      2763      2764
      2760      2761      2763      2765      2760      2761      2763      2813
      2761      2763      2813      2814      2761      2763      2813      2815
      2761      2763      2813      2816      2762      2761      2763      2764
      2762      2761      2763      2765      2762      2761      2763      2813
      2763      2813      2816      2817      2763      2813      2816      2818
      2763      2813      2816      2819      2764      2763      2813      2814
      2764      2763      2813      2815      2764      2763      2813      2816
      2765      2763      2813      2814      2765      2763      2813      2815
      2765      2763      2813      2816      2766      2769      2772      2773
      2766      2769      2772      2774      2766      2769      2772      2775
      2767      2766      2769      2770      2767      2766      2769      2771
      2767      2766      2769      2772      2768      2766      2769      2770
      2768      2766      2769      2771      2768      2766      2769      2772
      2769      2772      2775      2776      2769      2772      2775      2777
      2769      2772      2775      2778      2770      2769      2772      2773
      2770      2769      2772      2774      2770      2769      2772      2775
      2771      2769      2772      2773      2771      2769      2772      2774
      2771      2769      2772      2775      2772      2775      2778      2779
      2772      2775      2778      2780      2772      2775      2778      2781
      2773      2772      2775      2776      2773      2772      2775      2777
      2773      2772      2775      2778      2774      2772      2775      2776
      2774      2772      2775      2777      2774      2772      2775      2778
      2775      2778      2781      2782      2775      2778      2781      2783
      2775      2778      2781      2784      2776      2775      2778      2779
      2776      2775      2778      2780      2776      2775      2778      2781
      2777      2775      2778      2779      2777      2775      2778      2780
      2777      2775      2778      2781      2778      2781      2784      2785
      2778      2781      2784      2786      2779      2778      2781      2782
      2779      2778      2781      2783      2779      2778      2781      2784
      2780      2778      2781      2782      2780      2778      2781      2783
      2780      2778      2781      2784      2781      2784      2786      2787
      2781      2784      2786      2788      2782      2781      2784      2785
      2782      2781      2784      2786      2783      2781      2784      2785
      2783      2781      2784      2786      2784      2786      2788      2789
      2784      2786      2788      2790      2784      2786      2788      2791
      2785      2784      2786      2787      2785      2784      2786      2788
      2786      2788      2791      2792      2786      2788      2791      2793
      2786      2788      2791      2794      2787      2786      2788      2789
      2787      2786      2788      2790      2787      2786      2788      2791
      2788      2791      2794      2795      2788      2791      2794      2796
      2788      2791      2794      2797      2789      2788      2791      2792
      2789      2788      2791      2793      2789      2788      2791      2794
      2790      2788      2791      2792      2790      2788      2791      2793
      2790      2788      2791      2794      2791      2794      2797      2798
      2791      2794      2797      2799      2791      2794      2797      2800
      2792      2791      2794      2795      2792      2791      2794      2796
      2792      2791      2794      2797      2793      2791      2794      2795
      2793      2791      2794      2796      2793      2791      2794      2797
      2794      2797      2800      2801      2794      2797      2800      2802
      2794      2797      2800      2803      2795      2794      2797      2798
      2795      2794      2797      2799      2795      2794      2797      2800
      2796      2794      2797      2798      2796      2794      2797      2799
      2796      2794      2797      2800      2797      2800      2803      2804
      2797      2800      2803      2805      2797      2800      2803      2806
      2798      2797      2800      2801      2798      2797      2800      2802
      2798      2797      2800      2803      2799      2797      2800      2801
      2799      2797      2800      2802      2799      2797      2800      2803
      2800      2803      2806      2807      2800      2803      2806      2808
      2800      2803      2806      2809      2801      2800      2803      2804
      2801      2800      2803      2805      2801      2800      2803      2806
      2802      2800      2803      2804      2802      2800      2803      2805
      2802      2800      2803      2806      2803      2806      2809      2810
      2803      2806      2809      2811      2803      2806      2809      2812
      2804      2803      2806      2807      2804      2803      2806      2808
      2804      2803      2806      2809      2805      2803      2806      2807
      2805      2803      2806      2808      2805      2803      2806      2809
      2807      2806      2809      2810      2807      2806      2809      2811
      2807      2806      2809      2812      2808      2806      2809      2810
      2808      2806      2809      2811      2808      2806      2809      2812
      2813      2816      2819      2820      2813      2816      2819      2821
      2813      2816      2819      2822      2814      2813      2816      2817
      2814      2813      2816      2818      2814      2813      2816      2819
      2815      2813      2816      2817      2815      2813      2816      2818
      2815      2813      2816      2819      2816      2819      2822      2823
      2816      2819      2822      2824      2816      2819      2822      2825
      2817      2816      2819      2820      2817      2816      2819      2821
      2817      2816      2819      2822      2818      2816      2819      2820
      2818      2816      2819      2821      2818      2816      2819      2822
      2819      2822      2825      2826      2819      2822      2825      2827
      2819      2822      2825      2828      2820      2819      2822      2823
      2820      2819      2822      2824      2820      2819      2822      2825
      2821      2819      2822      2823      2821      2819      2822      2824
      2821      2819      2822      2825      2822      2825      2828      2829
      2822      2825      2828      2830      2822      2825      2828      2831
      2823      2822      2825      2826      2823      2822      2825      2827
      2823      2822      2825      2828      2824      2822      2825      2826
      2824      2822      2825      2827      2824      2822      2825      2828
      2825      2828      2831      2832      2825      2828      2831      2833
      2826      2825      2828      2829      2826      2825      2828      2830
      2826      2825      2828      2831      2827      2825      2828      2829
      2827      2825      2828      2830      2827      2825      2828      2831
      2828      2831      2833      2834      2828      2831      2833      2835
      2829      2828      2831      2832      2829      2828      2831      2833
      2830      2828      2831      2832      2830      2828      2831      2833
      2831      2833      2835      2836      2831      2833      2835      2837
      2831      2833      2835      2838      2832      2831      2833      2834
      2832      2831      2833      2835      2833      2835      2838      2839
      2833      2835      2838      2840      2833      2835      2838      2841
      2834      2833      2835      2836      2834      2833      2835      2837
      2834      2833      2835      2838      2835      2838      2841      2842
      2835      2838      2841      2843      2835      2838      2841      2844
      2836      2835      2838      2839      2836      2835      2838      2840
      2836      2835      2838      2841      2837      2835      2838      2839
      2837      2835      2838      2840      2837      2835      2838      2841
      2838      2841      2844      2845      2838      2841      2844      2846
      2838      2841      2844      2847      2839      2838      2841      2842
      2839      2838      2841      2843      2839      2838      2841      2844
      2840      2838      2841      2842      2840      2838      2841      2843
      2840      2838      2841      2844      2841      2844      2847      2848
      2841      2844      2847      2849      2841      2844      2847      2850
      2842      2841      2844      2845      2842      2841      2844      2846
      2842      2841      2844      2847      2843      2841      2844      2845
      2843      2841      2844      2846      2843      2841      2844      2847
      2844      2847      2850      2851      2844      2847      2850      2852
      2844      2847      2850      2853      2845      2844      2847      2848
      2845      2844      2847      2849      2845      2844      2847      2850
      2846      2844      2847      2848      2846      2844      2847      2849
      2846      2844      2847      2850      2847      2850      2853      2854
      2847      2850      2853      2855      2847      2850      2853      2856
      2848      2847      2850      2851      2848      2847      2850      2852
      2848      2847      2850      2853      2849      2847      2850      2851
      2849      2847      2850      2852      2849      2847      2850      2853
      2850      2853      2856      2857      2850      2853      2856      2858
      2850      2853      2856      2859      2851      2850      2853      2854
      2851      2850      2853      2855      2851      2850      2853      2856
      2852      2850      2853      2854      2852      2850      2853      2855
      2852      2850      2853      2856      2854      2853      2856      2857
      2854      2853      2856      2858      2854      2853      2856      2859
      2855      2853      2856      2857      2855      2853      2856      2858
      2855      2853      2856      2859      2860      2873      2876      2877
      2860      2873      2876      2878      2860      2873      2876      2883
      2861      2860      2865      2866      2861      2860      2865      2867
      2861      2860      2865      2868      2861      2860      2869      2870
      2861      2860      2869      2871      2861      2860      2869      2872
      2861      2860      2873      2874      2861      2860      2873      2875
      2861      2860      2873      2876      2862      2861      2860      2865
      2862      2861      2860      2869      2862      2861      2860      2873
      2863      2861      2860      2865      2863      2861      2860      2869
      2863      2861      2860      2873      2864      2861      2860      2865
      2864      2861      2860      2869      2864      2861      2860      2873
      2865      2860      2869      2870      2865      2860      2869      2871
      2865      2860      2869      2872      2865      2860      2873      2874
      2865      2860      2873      2875      2865      2860      2873      2876
      2866      2865      2860      2869      2866      2865      2860      2873
      2867      2865      2860      2869      2867      2865      2860      2873
      2868      2865      2860      2869      2868      2865      2860      2873
      2869      2860      2873      2874      2869      2860      2873      2875
      2869      2860      2873      2876      2870      2869      2860      2873
      2871      2869      2860      2873      2872      2869      2860      2873
      2873      2876      2883      2879      2874      2873      2876      2877
      2874      2873      2876      2878      2874      2873      2876      2883
      2875      2873      2876      2877      2875      2873      2876      2878
      2875      2873      2876      2883      2876      2883      2879      2880
      2876      2883      2879      2881      2876      2883      2879      2882
      2877      2876      2883      2879      2878      2876      2883      2879
      2879      2882      2884      2885      2879      2882      2884      2886
      2879      2882      2884      2889      2880      2879      2882      2884
      2881      2879      2882      2884      2882      2884      2889      2887
      2882      2884      2889      2890      2882      2884      2889      2891
      2883      2879      2882      2884      2884      2889      2887      2888
      2884      2889      2887      2939      2884      2889      2891      2892
      2884      2889      2891      2893      2884      2889      2891      2895
      2885      2884      2889      2887      2885      2884      2889      2890
      2885      2884      2889      2891      2886      2884      2889      2887
      2886      2884      2889      2890      2886      2884      2889      2891
      2887      2889      2891      2892      2887      2889      2891      2893
      2887      2889      2891      2895      2887      2939      2941      2942
      2887      2939      2941      2943      2887      2939      2941      2944
      2888      2887      2889      2890      2888      2887      2889      2891
      2888      2887      2939      2940      2888      2887      2939      2941
      2889      2887      2939      2940      2889      2887      2939      2941
      2889      2891      2893      2894      2889      2891      2895      2896
      2889      2891      2895      2897      2890      2889      2887      2939
      2890      2889      2891      2892      2890      2889      2891      2893
      2890      2889      2891      2895      2891      2889      2887      2939
      2891      2895      2897      2898      2891      2895      2897      2899
      2892      2891      2893      2894      2892      2891      2895      2896
      2892      2891      2895      2897      2893      2891      2895      2896
      2893      2891      2895      2897      2894      2893      2891      2895
      2895      2897      2899      2900      2895      2897      2899      2901
      2895      2897      2899      2902      2896      2895      2897      2898
      2896      2895      2897      2899      2897      2899      2902      2903
      2897      2899      2902      2904      2897      2899      2902      2905
      2898      2897      2899      2900      2898      2897      2899      2901
      2898      2897      2899      2902      2899      2902      2905      2906
      2899      2902      2905      2907      2899      2902      2905      2908
      2900      2899      2902      2903      2900      2899      2902      2904
      2900      2899      2902      2905      2901      2899      2902      2903
      2901      2899      2902      2904      2901      2899      2902      2905
      2902      2905      2908      2909      2902      2905      2908      2910
      2902      2905      2908      2911      2903      2902      2905      2906
      2903      2902      2905      2907      2903      2902      2905      2908
      2904      2902      2905      2906      2904      2902      2905      2907
      2904      2902      2905      2908      2905      2908      2911      2912
      2905      2908      2911      2913      2905      2908      2911      2914
      2906      2905      2908      2909      2906      2905      2908      2910
      2906      2905      2908      2911      2907      2905      2908      2909
      2907      2905      2908      2910      2907      2905      2908      2911
      2908      2911      2914      2915      2908      2911      2914      2916
      2908      2911      2914      2917      2909      2908      2911      2912
      2909      2908      2911      2913      2909      2908      2911      2914
      2910      2908      2911      2912      2910      2908      2911      2913
      2910      2908      2911      2914      2911      2914      2917      2918
      2911      2914      2917      2919      2911      2914      2917      2920
      2912      2911      2914      2915      2912      2911      2914      2916
      2912      2911      2914      2917      2913      2911      2914      2915
      2913      2911      2914      2916      2913      2911      2914      2917
      2914      2917      2920      2921      2914      2917      2920      2922
      2914      2917      2920      2923      2915      2914      2917      2918
      2915      2914      2917      2919      2915      2914      2917      2920
      2916      2914      2917      2918      2916      2914      2917      2919
      2916      2914      2917      2920      2917      2920      2923      2924
      2917      2920      2923      2925      2917      2920      2923      2926
      2918      2917      2920      2921      2918      2917      2920      2922
      2918      2917      2920      2923      2919      2917      2920      2921
      2919      2917      2920      2922      2919      2917      2920      2923
      2920      2923      2926      2927      2920      2923      2926      2928
      2920      2923      2926      2929      2921      2920      2923      2924
      2921      2920      2923      2925      2921      2920      2923      2926
      2922      2920      2923      2924      2922      2920      2923      2925
      2922      2920      2923      2926      2923      2926      2929      2930
      2923      2926      2929      2931      2923      2926      2929      2932
      2924      2923      2926      2927      2924      2923      2926      2928
      2924      2923      2926      2929      2925      2923      2926      2927
      2925      2923      2926      2928      2925      2923      2926      2929
      2926      2929      2932      2933      2926      2929      2932      2934
      2926      2929      2932      2935      2927      2926      2929      2930
      2927      2926      2929      2931      2927      2926      2929      2932
      2928      2926      2929      2930      2928      2926      2929      2931
      2928      2926      2929      2932      2929      2932      2935      2936
      2929      2932      2935      2937      2929      2932      2935      2938
      2930      2929      2932      2933      2930      2929      2932      2934
      2930      2929      2932      2935      2931      2929      2932      2933
      2931      2929      2932      2934      2931      2929      2932      2935
      2933      2932      2935      2936      2933      2932      2935      2937
      2933      2932      2935      2938      2934      2932      2935      2936
      2934      2932      2935      2937      2934      2932      2935      2938
      2939      2941      2944      2945      2939      2941      2944      2946
      2939      2941      2944      2947      2940      2939      2941      2942
      2940      2939      2941      2943      2940      2939      2941      2944
      2941      2944      2947      2948      2941      2944      2947      2949
      2941      2944      2947      2950      2942      2941      2944      2945
      2942      2941      2944      2946      2942      2941      2944      2947
      2943      2941      2944      2945      2943      2941      2944      2946
      2943      2941      2944      2947      2944      2947      2950      2951
      2944      2947      2950      2952      2944      2947      2950      2953
      2945      2944      2947      2948      2945      2944      2947      2949
      2945      2944      2947      2950      2946      2944      2947      2948
      2946      2944      2947      2949      2946      2944      2947      2950
      2947      2950      2953      2954      2947      2950      2953      2955
      2947      2950      2953      2956      2948      2947      2950      2951
      2948      2947      2950      2952      2948      2947      2950      2953
      2949      2947      2950      2951      2949      2947      2950      2952
      2949      2947      2950      2953      2950      2953      2956      2957
      2950      2953      2956      2958      2950      2953      2956      2959
      2951      2950      2953      2954      2951      2950      2953      2955
      2951      2950      2953      2956      2952      2950      2953      2954
      2952      2950      2953      2955      2952      2950      2953      2956
      2953      2956      2959      2960      2953      2956      2959      2961
      2953      2956      2959      2962      2954      2953      2956      2957
      2954      2953      2956      2958      2954      2953      2956      2959
      2955      2953      2956      2957      2955      2953      2956      2958
      2955      2953      2956      2959      2956      2959      2962      2963
      2956      2959      2962      2964      2956      2959      2962      2965
      2957      2956      2959      2960      2957      2956      2959      2961
      2957      2956      2959      2962      2958      2956      2959      2960
      2958      2956      2959      2961      2958      2956      2959      2962
      2959      2962      2965      2966      2959      2962      2965      2967
      2959      2962      2965      2968      2960      2959      2962      2963
      2960      2959      2962      2964      2960      2959      2962      2965
      2961      2959      2962      2963      2961      2959      2962      2964
      2961      2959      2962      2965      2962      2965      2968      2969
      2962      2965      2968      2970      2962      2965      2968      2971
      2963      2962      2965      2966      2963      2962      2965      2967
      2963      2962      2965      2968      2964      2962      2965      2966
      2964      2962      2965      2967      2964      2962      2965      2968
      2965      2968      2971      2972      2965      2968      2971      2973
      2965      2968      2971      2974      2966      2965      2968      2969
      2966      2965      2968      2970      2966      2965      2968      2971
      2967      2965      2968      2969      2967      2965      2968      2970
      2967      2965      2968      2971      2968      2971      2974      2975
      2968      2971      2974      2976      2968      2971      2974      2977
      2969      2968      2971      2972      2969      2968      2971      2973
      2969      2968      2971      2974      2970      2968      2971      2972
      2970      2968      2971      2973      2970      2968      2971      2974
      2971      2974      2977      2978      2971      2974      2977      2979
      2971      2974      2977      2980      2972      2971      2974      2975
      2972      2971      2974      2976      2972      2971      2974      2977
      2973      2971      2974      2975      2973      2971      2974      2976
      2973      2971      2974      2977      2974      2977      2980      2981
      2974      2977      2980      2982      2974      2977      2980      2983
      2975      2974      2977      2978      2975      2974      2977      2979
      2975      2974      2977      2980      2976      2974      2977      2978
      2976      2974      2977      2979      2976      2974      2977      2980
      2977      2980      2983      2984      2977      2980      2983      2985
      2977      2980      2983      2986      2978      2977      2980      2981
      2978      2977      2980      2982      2978      2977      2980      2983
      2979      2977      2980      2981      2979      2977      2980      2982
      2979      2977      2980      2983      2980      2983      2986      2987
      2980      2983      2986      2988      2980      2983      2986      2989
      2981      2980      2983      2984      2981      2980      2983      2985
      2981      2980      2983      2986      2982      2980      2983      2984
      2982      2980      2983      2985      2982      2980      2983      2986
      2983      2986      2989      2990      2983      2986      2989      2991
      2983      2986      2989      2992      2984      2983      2986      2987
      2984      2983      2986      2988      2984      2983      2986      2989
      2985      2983      2986      2987      2985      2983      2986      2988
      2985      2983      2986      2989      2986      2989      2992      2993
      2986      2989      2992      2994      2986      2989      2992      2995
      2987      2986      2989      2990      2987      2986      2989      2991
      2987      2986      2989      2992      2988      2986      2989      2990
      2988      2986      2989      2991      2988      2986      2989      2992
      2989      2992      2995      2996      2989      2992      2995      2997
      2989      2992      2995      2998      2990      2989      2992      2993
      2990      2989      2992      2994      2990      2989      2992      2995
      2991      2989      2992      2993      2991      2989      2992      2994
      2991      2989      2992      2995      2992      2995      2998      2999
      2992      2995      2998      3000      2992      2995      2998      3001
      2993      2992      2995      2996      2993      2992      2995      2997
      2993      2992      2995      2998      2994      2992      2995      2996
      2994      2992      2995      2997      2994      2992      2995      2998
      2995      2998      3001      3002      2995      2998      3001      3003
      2995      2998      3001      3004      2996      2995      2998      2999
      2996      2995      2998      3000      2996      2995      2998      3001
      2997      2995      2998      2999      2997      2995      2998      3000
      2997      2995      2998      3001      2998      3001      3004      3005
      2998      3001      3004      3006      2998      3001      3004      3007
      2999      2998      3001      3002      2999      2998      3001      3003
      2999      2998      3001      3004      3000      2998      3001      3002
      3000      2998      3001      3003      3000      2998      3001      3004
      3002      3001      3004      3005      3002      3001      3004      3006
      3002      3001      3004      3007      3003      3001      3004      3005
      3003      3001      3004      3006      3003      3001      3004      3007
      3008      3009      3024      3025      3008      3009      3024      3026
      3008      3009      3024      3030      3009      3008      3012      3013
      3009      3008      3012      3014      3009      3008      3012      3015
      3009      3008      3016      3017      3009      3008      3016      3018
      3009      3008      3016      3019      3009      3008      3020      3021
      3009      3008      3020      3022      3009      3008      3020      3023
      3009      3024      3030      3027      3010      3009      3008      3012
      3010      3009      3008      3016      3010      3009      3008      3020
      3010      3009      3024      3025      3010      3009      3024      3026
      3010      3009      3024      3030      3011      3009      3008      3012
      3011      3009      3008      3016      3011      3009      3008      3020
      3011      3009      3024      3025      3011      3009      3024      3026
      3011      3009      3024      3030      3012      3008      3009      3024
      3012      3008      3016      3017      3012      3008      3016      3018
      3012      3008      3016      3019      3012      3008      3020      3021
      3012      3008      3020      3022      3012      3008      3020      3023
      3013      3012      3008      3016      3013      3012      3008      3020
      3014      3012      3008      3016      3014      3012      3008      3020
      3015      3012      3008      3016      3015      3012      3008      3020
      3016      3008      3009      3024      3016      3008      3020      3021
      3016      3008      3020      3022      3016      3008      3020      3023
      3017      3016      3008      3020      3018      3016      3008      3020
      3019      3016      3008      3020      3020      3008      3009      3024
      3024      3030      3027      3028      3024      3030      3027      3029
      3024      3030      3027      3031      3025      3024      3030      3027
      3026      3024      3030      3027      3027      3031      3032      3033
      3027      3031      3032      3034      3027      3031      3032      3035
      3028      3027      3031      3032      3029      3027      3031      3032
      3030      3027      3031      3032      3031      3032      3035      3036
      3031      3032      3035      3037      3031      3032      3035      3043
      3032      3035      3037      3038      3032      3035      3043      3044
      3032      3035      3043      3045      3032      3035      3043      3046
      3033      3032      3035      3036      3033      3032      3035      3037
      3033      3032      3035      3043      3034      3032      3035      3036
      3034      3032      3035      3037      3034      3032      3035      3043
      3035      3037      3038      3039      3035      3037      3038      3040
      3035      3043      3046      3047      3036      3035      3037      3038
      3036      3035      3043      3044      3036      3035      3043      3045
      3036      3035      3043      3046      3037      3035      3043      3044
      3037      3035      3043      3045      3037      3035      3043      3046
      3037      3038      3040      3041      3037      3038      3040      3042
      3037      3038      3040      3052      3038      3037      3035      3043
      3038      3040      3052      3053      3038      3040      3052      3054
      3038      3040      3052      3055      3039      3038      3040      3041
      3039      3038      3040      3042      3039      3038      3040      3052
      3040      3052      3055      3056      3040      3052      3055      3057
      3040      3052      3055      3058      3041      3040      3052      3053
      3041      3040      3052      3054      3041      3040      3052      3055
      3042      3040      3052      3053      3042      3040      3052      3054
      3042      3040      3052      3055      3043      3046      3047      3048
      3043      3046      3047      3049      3044      3043      3046      3047
      3045      3043      3046      3047      3046      3047      3049      3050
      3046      3047      3049      3051      3046      3047      3049      3099
      3047      3049      3099      3100      3047      3049      3099      3101
      3047      3049      3099      3102      3048      3047      3049      3050
      3048      3047      3049      3051      3048      3047      3049      3099
      3049      3099      3102      3103      3049      3099      3102      3104
      3049      3099      3102      3105      3050      3049      3099      3100
      3050      3049      3099      3101      3050      3049      3099      3102
      3051      3049      3099      3100      3051      3049      3099      3101
      3051      3049      3099      3102      3052      3055      3058      3059
      3052      3055      3058      3060      3052      3055      3058      3061
      3053      3052      3055      3056      3053      3052      3055      3057
      3053      3052      3055      3058      3054      3052      3055      3056
      3054      3052      3055      3057      3054      3052      3055      3058
      3055      3058      3061      3062      3055      3058      3061      3063
      3055      3058      3061      3064      3056      3055      3058      3059
      3056      3055      3058      3060      3056      3055      3058      3061
      3057      3055      3058      3059      3057      3055      3058      3060
      3057      3055      3058      3061      3058      3061      3064      3065
      3058      3061      3064      3066      3058      3061      3064      3067
      3059      3058      3061      3062      3059      3058      3061      3063
      3059      3058      3061      3064      3060      3058      3061      3062
      3060      3058      3061      3063      3060      3058      3061      3064
      3061      3064      3067      3068      3061      3064      3067      3069
      3061      3064      3067      3070      3062      3061      3064      3065
      3062      3061      3064      3066      3062      3061      3064      3067
      3063      3061      3064      3065      3063      3061      3064      3066
      3063      3061      3064      3067      3064      3067      3070      3071
      3064      3067      3070      3072      3065      3064      3067      3068
      3065      3064      3067      3069      3065      3064      3067      3070
      3066      3064      3067      3068      3066      3064      3067      3069
      3066      3064      3067      3070      3067      3070      3072      3073
      3067      3070      3072      3074      3068      3067      3070      3071
      3068      3067      3070      3072      3069      3067      3070      3071
      3069      3067      3070      3072      3070      3072      3074      3075
      3070      3072      3074      3076      3070      3072      3074      3077
      3071      3070      3072      3073      3071      3070      3072      3074
      3072      3074      3077      3078      3072      3074      3077      3079
      3072      3074      3077      3080      3073      3072      3074      3075
      3073      3072      3074      3076      3073      3072      3074      3077
      3074      3077      3080      3081      3074      3077      3080      3082
      3074      3077      3080      3083      3075      3074      3077      3078
      3075      3074      3077      3079      3075      3074      3077      3080
      3076      3074      3077      3078      3076      3074      3077      3079
      3076      3074      3077      3080      3077      3080      3083      3084
      3077      3080      3083      3085      3077      3080      3083      3086
      3078      3077      3080      3081      3078      3077      3080      3082
      3078      3077      3080      3083      3079      3077      3080      3081
      3079      3077      3080      3082      3079      3077      3080      3083
      3080      3083      3086      3087      3080      3083      3086      3088
      3080      3083      3086      3089      3081      3080      3083      3084
      3081      3080      3083      3085      3081      3080      3083      3086
      3082      3080      3083      3084      3082      3080      3083      3085
      3082      3080      3083      3086      3083      3086      3089      3090
      3083      3086      3089      3091      3083      3086      3089      3092
      3084      3083      3086      3087      3084      3083      3086      3088
      3084      3083      3086      3089      3085      3083      3086      3087
      3085      3083      3086      3088      3085      3083      3086      3089
      3086      3089      3092      3093      3086      3089      3092      3094
      3086      3089      3092      3095      3087      3086      3089      3090
      3087      3086      3089      3091      3087      3086      3089      3092
      3088      3086      3089      3090      3088      3086      3089      3091
      3088      3086      3089      3092      3089      3092      3095      3096
      3089      3092      3095      3097      3089      3092      3095      3098
      3090      3089      3092      3093      3090      3089      3092      3094
      3090      3089      3092      3095      3091      3089      3092      3093
      3091      3089      3092      3094      3091      3089      3092      3095
      3093      3092      3095      3096      3093      3092      3095      3097
      3093      3092      3095      3098      3094      3092      3095      3096
      3094      3092      3095      3097      3094      3092      3095      3098
      3099      3102      3105      3106      3099      3102      3105      3107
      3099      3102      3105      3108      3100      3099      3102      3103
      3100      3099      3102      3104      3100      3099      3102      3105
      3101      3099      3102      3103      3101      3099      3102      3104
      3101      3099      3102      3105      3102      3105      3108      3109
      3102      3105      3108      3110      3102      3105      3108      3111
      3103      3102      3105      3106      3103      3102      3105      3107
      3103      3102      3105      3108      3104      3102      3105      3106
      3104      3102      3105      3107      3104      3102      3105      3108
      3105      3108      3111      3112      3105      3108      3111      3113
      3105      3108      3111      3114      3106      3105      3108      3109
      3106      3105      3108      3110      3106      3105      3108      3111
      3107      3105      3108      3109      3107      3105      3108      3110
      3107      3105      3108      3111      3108      3111      3114      3115
      3108      3111      3114      3116      3108      3111      3114      3117
      3109      3108      3111      3112      3109      3108      3111      3113
      3109      3108      3111      3114      3110      3108      3111      3112
      3110      3108      3111      3113      3110      3108      3111      3114
      3111      3114      3117      3118      3111      3114      3117      3119
      3112      3111      3114      3115      3112      3111      3114      3116
      3112      3111      3114      3117      3113      3111      3114      3115
      3113      3111      3114      3116      3113      3111      3114      3117
      3114      3117      3119      3120      3114      3117      3119      3121
      3115      3114      3117      3118      3115      3114      3117      3119
      3116      3114      3117      3118      3116      3114      3117      3119
      3117      3119      3121      3122      3117      3119      3121      3123
      3117      3119      3121      3124      3118      3117      3119      3120
      3118      3117      3119      3121      3119      3121      3124      3125
      3119      3121      3124      3126      3119      3121      3124      3127
      3120      3119      3121      3122      3120      3119      3121      3123
      3120      3119      3121      3124      3121      3124      3127      3128
      3121      3124      3127      3129      3121      3124      3127      3130
      3122      3121      3124      3125      3122      3121      3124      3126
      3122      3121      3124      3127      3123      3121      3124      3125
      3123      3121      3124      3126      3123      3121      3124      3127
      3124      3127      3130      3131      3124      3127      3130      3132
      3124      3127      3130      3133      3125      3124      3127      3128
      3125      3124      3127      3129      3125      3124      3127      3130
      3126      3124      3127      3128      3126      3124      3127      3129
      3126      3124      3127      3130      3127      3130      3133      3134
      3127      3130      3133      3135      3127      3130      3133      3136
      3128      3127      3130      3131      3128      3127      3130      3132
      3128      3127      3130      3133      3129      3127      3130      3131
      3129      3127      3130      3132      3129      3127      3130      3133
      3130      3133      3136      3137      3130      3133      3136      3138
      3130      3133      3136      3139      3131      3130      3133      3134
      3131      3130      3133      3135      3131      3130      3133      3136
      3132      3130      3133      3134      3132      3130      3133      3135
      3132      3130      3133      3136      3133      3136      3139      3140
      3133      3136      3139      3141      3133      3136      3139      3142
      3134      3133      3136      3137      3134      3133      3136      3138
      3134      3133      3136      3139      3135      3133      3136      3137
      3135      3133      3136      3138      3135      3133      3136      3139
      3136      3139      3142      3143      3136      3139      3142      3144
      3136      3139      3142      3145      3137      3136      3139      3140
      3137      3136      3139      3141      3137      3136      3139      3142
      3138      3136      3139      3140      3138      3136      3139      3141
      3138      3136      3139      3142      3140      3139      3142      3143
      3140      3139      3142      3144      3140      3139      3142      3145
      3141      3139      3142      3143      3141      3139      3142      3144
      3141      3139      3142      3145      3146      3150      3153      3154
      3146      3150      3153      3155      3146      3150      3153      3160
      3147      3146      3150      3151      3147      3146      3150      3152
      3147      3146      3150      3153      3148      3146      3150      3151
      3148      3146      3150      3152      3148      3146      3150      3153
      3149      3146      3150      3151      3149      3146      3150      3152
      3149      3146      3150      3153      3150      3153      3160      3156
      3151      3150      3153      3154      3151      3150      3153      3155
      3151      3150      3153      3160      3152      3150      3153      3154
      3152      3150      3153      3155      3152      3150      3153      3160
      3153      3160      3156      3157      3153      3160      3156      3158
      3153      3160      3156      3159      3154      3153      3160      3156
      3155      3153      3160      3156      3156      3159      3161      3162
      3156      3159      3161      3163      3156      3159      3161      3164
      3157      3156      3159      3161      3158      3156      3159      3161
      3159      3161      3164      3165      3159      3161      3164      3166
      3159      3161      3164      3172      3160      3156      3159      3161
      3161      3164      3166      3167      3161      3164      3172      3173
      3161      3164      3172      3174      3161      3164      3172      3175
      3162      3161      3164      3165      3162      3161      3164      3166
      3162      3161      3164      3172      3163      3161      3164      3165
      3163      3161      3164      3166      3163      3161      3164      3172
      3164      3166      3167      3168      3164      3166      3167      3169
      3164      3172      3175      3176      3165      3164      3166      3167
      3165      3164      3172      3173      3165      3164      3172      3174
      3165      3164      3172      3175      3166      3164      3172      3173
      3166      3164      3172      3174      3166      3164      3172      3175
      3166      3167      3169      3170      3166      3167      3169      3171
      3166      3167      3169      3181      3167      3166      3164      3172
      3167      3169      3181      3182      3167      3169      3181      3183
      3167      3169      3181      3184      3168      3167      3169      3170
      3168      3167      3169      3171      3168      3167      3169      3181
      3169      3181      3184      3185      3169      3181      3184      3186
      3169      3181      3184      3187      3170      3169      3181      3182
      3170      3169      3181      3183      3170      3169      3181      3184
      3171      3169      3181      3182      3171      3169      3181      3183
      3171      3169      3181      3184      3172      3175      3176      3177
      3172      3175      3176      3178      3173      3172      3175      3176
      3174      3172      3175      3176      3175      3176      3178      3179
      3175      3176      3178      3180      3175      3176      3178      3228
      3176      3178      3228      3229      3176      3178      3228      3230
      3176      3178      3228      3231      3177      3176      3178      3179
      3177      3176      3178      3180      3177      3176      3178      3228
      3178      3228      3231      3232      3178      3228      3231      3233
      3178      3228      3231      3234      3179      3178      3228      3229
      3179      3178      3228      3230      3179      3178      3228      3231
      3180      3178      3228      3229      3180      3178      3228      3230
      3180      3178      3228      3231      3181      3184      3187      3188
      3181      3184      3187      3189      3181      3184      3187      3190
      3182      3181      3184      3185      3182      3181      3184      3186
      3182      3181      3184      3187      3183      3181      3184      3185
      3183      3181      3184      3186      3183      3181      3184      3187
      3184      3187      3190      3191      3184      3187      3190      3192
      3184      3187      3190      3193      3185      3184      3187      3188
      3185      3184      3187      3189      3185      3184      3187      3190
      3186      3184      3187      3188      3186      3184      3187      3189
      3186      3184      3187      3190      3187      3190      3193      3194
      3187      3190      3193      3195      3187      3190      3193      3196
      3188      3187      3190      3191      3188      3187      3190      3192
      3188      3187      3190      3193      3189      3187      3190      3191
      3189      3187      3190      3192      3189      3187      3190      3193
      3190      3193      3196      3197      3190      3193      3196      3198
      3190      3193      3196      3199      3191      3190      3193      3194
      3191      3190      3193      3195      3191      3190      3193      3196
      3192      3190      3193      3194      3192      3190      3193      3195
      3192      3190      3193      3196      3193      3196      3199      3200
      3193      3196      3199      3201      3194      3193      3196      3197
      3194      3193      3196      3198      3194      3193      3196      3199
      3195      3193      3196      3197      3195      3193      3196      3198
      3195      3193      3196      3199      3196      3199      3201      3202
      3196      3199      3201      3203      3197      3196      3199      3200
      3197      3196      3199      3201      3198      3196      3199      3200
      3198      3196      3199      3201      3199      3201      3203      3204
      3199      3201      3203      3205      3199      3201      3203      3206
      3200      3199      3201      3202      3200      3199      3201      3203
      3201      3203      3206      3207      3201      3203      3206      3208
      3201      3203      3206      3209      3202      3201      3203      3204
      3202      3201      3203      3205      3202      3201      3203      3206
      3203      3206      3209      3210      3203      3206      3209      3211
      3203      3206      3209      3212      3204      3203      3206      3207
      3204      3203      3206      3208      3204      3203      3206      3209
      3205      3203      3206      3207      3205      3203      3206      3208
      3205      3203      3206      3209      3206      3209      3212      3213
      3206      3209      3212      3214      3206      3209      3212      3215
      3207      3206      3209      3210      3207      3206      3209      3211
      3207      3206      3209      3212      3208      3206      3209      3210
      3208      3206      3209      3211      3208      3206      3209      3212
      3209      3212      3215      3216      3209      3212      3215      3217
      3209      3212      3215      3218      3210      3209      3212      3213
      3210      3209      3212      3214      3210      3209      3212      3215
      3211      3209      3212      3213      3211      3209      3212      3214
      3211      3209      3212      3215      3212      3215      3218      3219
      3212      3215      3218      3220      3212      3215      3218      3221
      3213      3212      3215      3216      3213      3212      3215      3217
      3213      3212      3215      3218      3214      3212      3215      3216
      3214      3212      3215      3217      3214      3212      3215      3218
      3215      3218      3221      3222      3215      3218      3221      3223
      3215      3218      3221      3224      3216      3215      3218      3219
      3216      3215      3218      3220      3216      3215      3218      3221
      3217      3215      3218      3219      3217      3215      3218      3220
      3217      3215      3218      3221      3218      3221      3224      3225
      3218      3221      3224      3226      3218      3221      3224      3227
      3219      3218      3221      3222      3219      3218      3221      3223
      3219      3218      3221      3224      3220      3218      3221      3222
      3220      3218      3221      3223      3220      3218      3221      3224
      3222      3221      3224      3225      3222      3221      3224      3226
      3222      3221      3224      3227      3223      3221      3224      3225
      3223      3221      3224      3226      3223      3221      3224      3227
      3228      3231      3234      3235      3228      3231      3234      3236
      3228      3231      3234      3237      3229      3228      3231      3232
      3229      3228      3231      3233      3229      3228      3231      3234
      3230      3228      3231      3232      3230      3228      3231      3233
      3230      3228      3231      3234      3231      3234      3237      3238
      3231      3234      3237      3239      3231      3234      3237      3240
      3232      3231      3234      3235      3232      3231      3234      3236
      3232      3231      3234      3237      3233      3231      3234      3235
      3233      3231      3234      3236      3233      3231      3234      3237
      3234      3237      3240      3241      3234      3237      3240      3242
      3234      3237      3240      3243      3235      3234      3237      3238
      3235      3234      3237      3239      3235      3234      3237      3240
      3236      3234      3237      3238      3236      3234      3237      3239
      3236      3234      3237      3240      3237      3240      3243      3244
      3237      3240      3243      3245      3237      3240      3243      3246
      3238      3237      3240      3241      3238      3237      3240      3242
      3238      3237      3240      3243      3239      3237      3240      3241
      3239      3237      3240      3242      3239      3237      3240      3243
      3240      3243      3246      3247      3240      3243      3246      3248
      3241      3240      3243      3244      3241      3240      3243      3245
      3241      3240      3243      3246      3242      3240      3243      3244
      3242      3240      3243      3245      3242      3240      3243      3246
      3243      3246      3248      3249      3243      3246      3248      3250
      3244      3243      3246      3247      3244      3243      3246      3248
      3245      3243      3246      3247      3245      3243      3246      3248
      3246      3248      3250      3251      3246      3248      3250      3252
      3246      3248      3250      3253      3247      3246      3248      3249
      3247      3246      3248      3250      3248      3250      3253      3254
      3248      3250      3253      3255      3248      3250      3253      3256
      3249      3248      3250      3251      3249      3248      3250      3252
      3249      3248      3250      3253      3250      3253      3256      3257
      3250      3253      3256      3258      3250      3253      3256      3259
      3251      3250      3253      3254      3251      3250      3253      3255
      3251      3250      3253      3256      3252      3250      3253      3254
      3252      3250      3253      3255      3252      3250      3253      3256
      3253      3256      3259      3260      3253      3256      3259      3261
      3253      3256      3259      3262      3254      3253      3256      3257
      3254      3253      3256      3258      3254      3253      3256      3259
      3255      3253      3256      3257      3255      3253      3256      3258
      3255      3253      3256      3259      3256      3259      3262      3263
      3256      3259      3262      3264      3256      3259      3262      3265
      3257      3256      3259      3260      3257      3256      3259      3261
      3257      3256      3259      3262      3258      3256      3259      3260
      3258      3256      3259      3261      3258      3256      3259      3262
      3259      3262      3265      3266      3259      3262      3265      3267
      3259      3262      3265      3268      3260      3259      3262      3263
      3260      3259      3262      3264      3260      3259      3262      3265
      3261      3259      3262      3263      3261      3259      3262      3264
      3261      3259      3262      3265      3262      3265      3268      3269
      3262      3265      3268      3270      3262      3265      3268      3271
      3263      3262      3265      3266      3263      3262      3265      3267
      3263      3262      3265      3268      3264      3262      3265      3266
      3264      3262      3265      3267      3264      3262      3265      3268
      3265      3268      3271      3272      3265      3268      3271      3273
      3265      3268      3271      3274      3266      3265      3268      3269
      3266      3265      3268      3270      3266      3265      3268      3271
      3267      3265      3268      3269      3267      3265      3268      3270
      3267      3265      3268      3271      3269      3268      3271      3272
      3269      3268      3271      3273      3269      3268      3271      3274
      3270      3268      3271      3272      3270      3268      3271      3273
      3270      3268      3271      3274      3275      3279      3282      3283
      3275      3279      3282      3284      3275      3279      3282      3289
      3276      3275      3279      3280      3276      3275      3279      3281
      3276      3275      3279      3282      3277      3275      3279      3280
      3277      3275      3279      3281      3277      3275      3279      3282
      3278      3275      3279      3280      3278      3275      3279      3281
      3278      3275      3279      3282      3279      3282      3289      3285
      3280      3279      3282      3283      3280      3279      3282      3284
      3280      3279      3282      3289      3281      3279      3282      3283
      3281      3279      3282      3284      3281      3279      3282      3289
      3282      3289      3285      3286      3282      3289      3285      3287
      3282      3289      3285      3288      3283      3282      3289      3285
      3284      3282      3289      3285      3285      3288      3290      3291
      3285      3288      3290      3292      3285      3288      3290      3293
      3286      3285      3288      3290      3287      3285      3288      3290
      3288      3290      3293      3294      3288      3290      3293      3295
      3288      3290      3293      3301      3289      3285      3288      3290
      3290      3293      3295      3296      3290      3293      3301      3302
      3290      3293      3301      3303      3290      3293      3301      3304
      3291      3290      3293      3294      3291      3290      3293      3295
      3291      3290      3293      3301      3292      3290      3293      3294
      3292      3290      3293      3295      3292      3290      3293      3301
      3293      3295      3296      3297      3293      3295      3296      3298
      3293      3301      3304      3305      3294      3293      3295      3296
      3294      3293      3301      3302      3294      3293      3301      3303
      3294      3293      3301      3304      3295      3293      3301      3302
      3295      3293      3301      3303      3295      3293      3301      3304
      3295      3296      3298      3299      3295      3296      3298      3300
      3295      3296      3298      3310      3296      3295      3293      3301
      3296      3298      3310      3311      3296      3298      3310      3312
      3296      3298      3310      3313      3297      3296      3298      3299
      3297      3296      3298      3300      3297      3296      3298      3310
      3298      3310      3313      3314      3298      3310      3313      3315
      3298      3310      3313      3316      3299      3298      3310      3311
      3299      3298      3310      3312      3299      3298      3310      3313
      3300      3298      3310      3311      3300      3298      3310      3312
      3300      3298      3310      3313      3301      3304      3305      3306
      3301      3304      3305      3307      3302      3301      3304      3305
      3303      3301      3304      3305      3304      3305      3307      3308
      3304      3305      3307      3309      3304      3305      3307      3357
      3305      3307      3357      3358      3305      3307      3357      3359
      3305      3307      3357      3360      3306      3305      3307      3308
      3306      3305      3307      3309      3306      3305      3307      3357
      3307      3357      3360      3361      3307      3357      3360      3362
      3307      3357      3360      3363      3308      3307      3357      3358
      3308      3307      3357      3359      3308      3307      3357      3360
      3309      3307      3357      3358      3309      3307      3357      3359
      3309      3307      3357      3360      3310      3313      3316      3317
      3310      3313      3316      3318      3310      3313      3316      3319
      3311      3310      3313      3314      3311      3310      3313      3315
      3311      3310      3313      3316      3312      3310      3313      3314
      3312      3310      3313      3315      3312      3310      3313      3316
      3313      3316      3319      3320      3313      3316      3319      3321
      3313      3316      3319      3322      3314      3313      3316      3317
      3314      3313      3316      3318      3314      3313      3316      3319
      3315      3313      3316      3317      3315      3313      3316      3318
      3315      3313      3316      3319      3316      3319      3322      3323
      3316      3319      3322      3324      3316      3319      3322      3325
      3317      3316      3319      3320      3317      3316      3319      3321
      3317      3316      3319      3322      3318      3316      3319      3320
      3318      3316      3319      3321      3318      3316      3319      3322
      3319      3322      3325      3326      3319      3322      3325      3327
      3319      3322      3325      3328      3320      3319      3322      3323
      3320      3319      3322      3324      3320      3319      3322      3325
      3321      3319      3322      3323      3321      3319      3322      3324
      3321      3319      3322      3325      3322      3325      3328      3329
      3322      3325      3328      3330      3323      3322      3325      3326
      3323      3322      3325      3327      3323      3322      3325      3328
      3324      3322      3325      3326      3324      3322      3325      3327
      3324      3322      3325      3328      3325      3328      3330      3331
      3325      3328      3330      3332      3326      3325      3328      3329
      3326      3325      3328      3330      3327      3325      3328      3329
      3327      3325      3328      3330      3328      3330      3332      3333
      3328      3330      3332      3334      3328      3330      3332      3335
      3329      3328      3330      3331      3329      3328      3330      3332
      3330      3332      3335      3336      3330      3332      3335      3337
      3330      3332      3335      3338      3331      3330      3332      3333
      3331      3330      3332      3334      3331      3330      3332      3335
      3332      3335      3338      3339      3332      3335      3338      3340
      3332      3335      3338      3341      3333      3332      3335      3336
      3333      3332      3335      3337      3333      3332      3335      3338
      3334      3332      3335      3336      3334      3332      3335      3337
      3334      3332      3335      3338      3335      3338      3341      3342
      3335      3338      3341      3343      3335      3338      3341      3344
      3336      3335      3338      3339      3336      3335      3338      3340
      3336      3335      3338      3341      3337      3335      3338      3339
      3337      3335      3338      3340      3337      3335      3338      3341
      3338      3341      3344      3345      3338      3341      3344      3346
      3338      3341      3344      3347      3339      3338      3341      3342
      3339      3338      3341      3343      3339      3338      3341      3344
      3340      3338      3341      3342      3340      3338      3341      3343
      3340      3338      3341      3344      3341      3344      3347      3348
      3341      3344      3347      3349      3341      3344      3347      3350
      3342      3341      3344      3345      3342      3341      3344      3346
      3342      3341      3344      3347      3343      3341      3344      3345
      3343      3341      3344      3346      3343      3341      3344      3347
      3344      3347      3350      3351      3344      3347      3350      3352
      3344      3347      3350      3353      3345      3344      3347      3348
      3345      3344      3347      3349      3345      3344      3347      3350
      3346      3344      3347      3348      3346      3344      3347      3349
      3346      3344      3347      3350      3347      3350      3353      3354
      3347      3350      3353      3355      3347      3350      3353      3356
      3348      3347      3350      3351      3348      3347      3350      3352
      3348      3347      3350      3353      3349      3347      3350      3351
      3349      3347      3350      3352      3349      3347      3350      3353
      3351      3350      3353      3354      3351      3350      3353      3355
      3351      3350      3353      3356      3352      3350      3353      3354
      3352      3350      3353      3355      3352      3350      3353      3356
      3357      3360      3363      3364      3357      3360      3363      3365
      3357      3360      3363      3366      3358      3357      3360      3361
      3358      3357      3360      3362      3358      3357      3360      3363
      3359      3357      3360      3361      3359      3357      3360      3362
      3359      3357      3360      3363      3360      3363      3366      3367
      3360      3363      3366      3368      3360      3363      3366      3369
      3361      3360      3363      3364      3361      3360      3363      3365
      3361      3360      3363      3366      3362      3360      3363      3364
      3362      3360      3363      3365      3362      3360      3363      3366
      3363      3366      3369      3370      3363      3366      3369      3371
      3363      3366      3369      3372      3364      3363      3366      3367
      3364      3363      3366      3368      3364      3363      3366      3369
      3365      3363      3366      3367      3365      3363      3366      3368
      3365      3363      3366      3369      3366      3369      3372      3373
      3366      3369      3372      3374      3366      3369      3372      3375
      3367      3366      3369      3370      3367      3366      3369      3371
      3367      3366      3369      3372      3368      3366      3369      3370
      3368      3366      3369      3371      3368      3366      3369      3372
      3369      3372      3375      3376      3369      3372      3375      3377
      3370      3369      3372      3373      3370      3369      3372      3374
      3370      3369      3372      3375      3371      3369      3372      3373
      3371      3369      3372      3374      3371      3369      3372      3375
      3372      3375      3377      3378      3372      3375      3377      3379
      3373      3372      3375      3376      3373      3372      3375      3377
      3374      3372      3375      3376      3374      3372      3375      3377
      3375      3377      3379      3380      3375      3377      3379      3381
      3375      3377      3379      3382      3376      3375      3377      3378
      3376      3375      3377      3379      3377      3379      3382      3383
      3377      3379      3382      3384      3377      3379      3382      3385
      3378      3377      3379      3380      3378      3377      3379      3381
      3378      3377      3379      3382      3379      3382      3385      3386
      3379      3382      3385      3387      3379      3382      3385      3388
      3380      3379      3382      3383      3380      3379      3382      3384
      3380      3379      3382      3385      3381      3379      3382      3383
      3381      3379      3382      3384      3381      3379      3382      3385
      3382      3385      3388      3389      3382      3385      3388      3390
      3382      3385      3388      3391      3383      3382      3385      3386
      3383      3382      3385      3387      3383      3382      3385      3388
      3384      3382      3385      3386      3384      3382      3385      3387
      3384      3382      3385      3388      3385      3388      3391      3392
      3385      3388      3391      3393      3385      3388      3391      3394
      3386      3385      3388      3389      3386      3385      3388      3390
      3386      3385      3388      3391      3387      3385      3388      3389
      3387      3385      3388      3390      3387      3385      3388      3391
      3388      3391      3394      3395      3388      3391      3394      3396
      3388      3391      3394      3397      3389      3388      3391      3392
      3389      3388      3391      3393      3389      3388      3391      3394
      3390      3388      3391      3392      3390      3388      3391      3393
      3390      3388      3391      3394      3391      3394      3397      3398
      3391      3394      3397      3399      3391      3394      3397      3400
      3392      3391      3394      3395      3392      3391      3394      3396
      3392      3391      3394      3397      3393      3391      3394      3395
      3393      3391      3394      3396      3393      3391      3394      3397
      3394      3397      3400      3401      3394      3397      3400      3402
      3394      3397      3400      3403      3395      3394      3397      3398
      3395      3394      3397      3399      3395      3394      3397      3400
      3396      3394      3397      3398      3396      3394      3397      3399
      3396      3394      3397      3400      3398      3397      3400      3401
      3398      3397      3400      3402      3398      3397      3400      3403
      3399      3397      3400      3401      3399      3397      3400      3402
      3399      3397      3400      3403      3404      3408      3411      3412
      3404      3408      3411      3413      3404      3408      3411      3418
      3405      3404      3408      3409      3405      3404      3408      3410
      3405      3404      3408      3411      3406      3404      3408      3409
      3406      3404      3408      3410      3406      3404      3408      3411
      3407      3404      3408      3409      3407      3404      3408      3410
      3407      3404      3408      3411      3408      3411      3418      3414
      3409      3408      3411      3412      3409      3408      3411      3413
      3409      3408      3411      3418      3410      3408      3411      3412
      3410      3408      3411      3413      3410      3408      3411      3418
      3411      3418      3414      3415      3411      3418      3414      3416
      3411      3418      3414      3417      3412      3411      3418      3414
      3413      3411      3418      3414      3414      3417      3419      3420
      3414      3417      3419      3421      3414      3417      3419      3422
      3415      3414      3417      3419      3416      3414      3417      3419
      3417      3419      3422      3423      3417      3419      3422      3424
      3417      3419      3422      3430      3418      3414      3417      3419
      3419      3422      3424      3425      3419      3422      3430      3431
      3419      3422      3430      3432      3419      3422      3430      3433
      3420      3419      3422      3423      3420      3419      3422      3424
      3420      3419      3422      3430      3421      3419      3422      3423
      3421      3419      3422      3424      3421      3419      3422      3430
      3422      3424      3425      3426      3422      3424      3425      3427
      3422      3430      3433      3434      3423      3422      3424      3425
      3423      3422      3430      3431      3423      3422      3430      3432
      3423      3422      3430      3433      3424      3422      3430      3431
      3424      3422      3430      3432      3424      3422      3430      3433
      3424      3425      3427      3428      3424      3425      3427      3429
      3424      3425      3427      3439      3425      3424      3422      3430
      3425      3427      3439      3440      3425      3427      3439      3441
      3425      3427      3439      3442      3426      3425      3427      3428
      3426      3425      3427      3429      3426      3425      3427      3439
      3427      3439      3442      3443      3427      3439      3442      3444
      3427      3439      3442      3445      3428      3427      3439      3440
      3428      3427      3439      3441      3428      3427      3439      3442
      3429      3427      3439      3440      3429      3427      3439      3441
      3429      3427      3439      3442      3430      3433      3434      3435
      3430      3433      3434      3436      3431      3430      3433      3434
      3432      3430      3433      3434      3433      3434      3436      3437
      3433      3434      3436      3438      3433      3434      3436      3486
      3434      3436      3486      3487      3434      3436      3486      3488
      3434      3436      3486      3489      3435      3434      3436      3437
      3435      3434      3436      3438      3435      3434      3436      3486
      3436      3486      3489      3490      3436      3486      3489      3491
      3436      3486      3489      3492      3437      3436      3486      3487
      3437      3436      3486      3488      3437      3436      3486      3489
      3438      3436      3486      3487      3438      3436      3486      3488
      3438      3436      3486      3489      3439      3442      3445      3446
      3439      3442      3445      3447      3439      3442      3445      3448
      3440      3439      3442      3443      3440      3439      3442      3444
      3440      3439      3442      3445      3441      3439      3442      3443
      3441      3439      3442      3444      3441      3439      3442      3445
      3442      3445      3448      3449      3442      3445      3448      3450
      3442      3445      3448      3451      3443      3442      3445      3446
      3443      3442      3445      3447      3443      3442      3445      3448
      3444      3442      3445      3446      3444      3442      3445      3447
      3444      3442      3445      3448      3445      3448      3451      3452
      3445      3448      3451      3453      3445      3448      3451      3454
      3446      3445      3448      3449      3446      3445      3448      3450
      3446      3445      3448      3451      3447      3445      3448      3449
      3447      3445      3448      3450      3447      3445      3448      3451
      3448      3451      3454      3455      3448      3451      3454      3456
      3448      3451      3454      3457      3449      3448      3451      3452
      3449      3448      3451      3453      3449      3448      3451      3454
      3450      3448      3451      3452      3450      3448      3451      3453
      3450      3448      3451      3454      3451      3454      3457      3458
      3451      3454      3457      3459      3452      3451      3454      3455
      3452      3451      3454      3456      3452      3451      3454      3457
      3453      3451      3454      3455      3453      3451      3454      3456
      3453      3451      3454      3457      3454      3457      3459      3460
      3454      3457      3459      3461      3455      3454      3457      3458
      3455      3454      3457      3459      3456      3454      3457      3458
      3456      3454      3457      3459      3457      3459      3461      3462
      3457      3459      3461      3463      3457      3459      3461      3464
      3458      3457      3459      3460      3458      3457      3459      3461
      3459      3461      3464      3465      3459      3461      3464      3466
      3459      3461      3464      3467      3460      3459      3461      3462
      3460      3459      3461      3463      3460      3459      3461      3464
      3461      3464      3467      3468      3461      3464      3467      3469
      3461      3464      3467      3470      3462      3461      3464      3465
      3462      3461      3464      3466      3462      3461      3464      3467
      3463      3461      3464      3465      3463      3461      3464      3466
      3463      3461      3464      3467      3464      3467      3470      3471
      3464      3467      3470      3472      3464      3467      3470      3473
      3465      3464      3467      3468      3465      3464      3467      3469
      3465      3464      3467      3470      3466      3464      3467      3468
      3466      3464      3467      3469      3466      3464      3467      3470
      3467      3470      3473      3474      3467      3470      3473      3475
      3467      3470      3473      3476      3468      3467      3470      3471
      3468      3467      3470      3472      3468      3467      3470      3473
      3469      3467      3470      3471      3469      3467      3470      3472
      3469      3467      3470      3473      3470      3473      3476      3477
      3470      3473      3476      3478      3470      3473      3476      3479
      3471      3470      3473      3474      3471      3470      3473      3475
      3471      3470      3473      3476      3472      3470      3473      3474
      3472      3470      3473      3475      3472      3470      3473      3476
      3473      3476      3479      3480      3473      3476      3479      3481
      3473      3476      3479      3482      3474      3473      3476      3477
      3474      3473      3476      3478      3474      3473      3476      3479
      3475      3473      3476      3477      3475      3473      3476      3478
      3475      3473      3476      3479      3476      3479      3482      3483
      3476      3479      3482      3484      3476      3479      3482      3485
      3477      3476      3479      3480      3477      3476      3479      3481
      3477      3476      3479      3482      3478      3476      3479      3480
      3478      3476      3479      3481      3478      3476      3479      3482
      3480      3479      3482      3483      3480      3479      3482      3484
      3480      3479      3482      3485      3481      3479      3482      3483
      3481      3479      3482      3484      3481      3479      3482      3485
      3486      3489      3492      3493      3486      3489      3492      3494
      3486      3489      3492      3495      3487      3486      3489      3490
      3487      3486      3489      3491      3487      3486      3489      3492
      3488      3486      3489      3490      3488      3486      3489      3491
      3488      3486      3489      3492      3489      3492      3495      3496
      3489      3492      3495      3497      3489      3492      3495      3498
      3490      3489      3492      3493      3490      3489      3492      3494
      3490      3489      3492      3495      3491      3489      3492      3493
      3491      3489      3492      3494      3491      3489      3492      3495
      3492      3495      3498      3499      3492      3495      3498      3500
      3492      3495      3498      3501      3493      3492      3495      3496
      3493      3492      3495      3497      3493      3492      3495      3498
      3494      3492      3495      3496      3494      3492      3495      3497
      3494      3492      3495      3498      3495      3498      3501      3502
      3495      3498      3501      3503      3495      3498      3501      3504
      3496      3495      3498      3499      3496      3495      3498      3500
      3496      3495      3498      3501      3497      3495      3498      3499
      3497      3495      3498      3500      3497      3495      3498      3501
      3498      3501      3504      3505      3498      3501      3504      3506
      3499      3498      3501      3502      3499      3498      3501      3503
      3499      3498      3501      3504      3500      3498      3501      3502
      3500      3498      3501      3503      3500      3498      3501      3504
      3501      3504      3506      3507      3501      3504      3506      3508
      3502      3501      3504      3505      3502      3501      3504      3506
      3503      3501      3504      3505      3503      3501      3504      3506
      3504      3506      3508      3509      3504      3506      3508      3510
      3504      3506      3508      3511      3505      3504      3506      3507
      3505      3504      3506      3508      3506      3508      3511      3512
      3506      3508      3511      3513      3506      3508      3511      3514
      3507      3506      3508      3509      3507      3506      3508      3510
      3507      3506      3508      3511      3508      3511      3514      3515
      3508      3511      3514      3516      3508      3511      3514      3517
      3509      3508      3511      3512      3509      3508      3511      3513
      3509      3508      3511      3514      3510      3508      3511      3512
      3510      3508      3511      3513      3510      3508      3511      3514
      3511      3514      3517      3518      3511      3514      3517      3519
      3511      3514      3517      3520      3512      3511      3514      3515
      3512      3511      3514      3516      3512      3511      3514      3517
      3513      3511      3514      3515      3513      3511      3514      3516
      3513      3511      3514      3517      3514      3517      3520      3521
      3514      3517      3520      3522      3514      3517      3520      3523
      3515      3514      3517      3518      3515      3514      3517      3519
      3515      3514      3517      3520      3516      3514      3517      3518
      3516      3514      3517      3519      3516      3514      3517      3520
      3517      3520      3523      3524      3517      3520      3523      3525
      3517      3520      3523      3526      3518      3517      3520      3521
      3518      3517      3520      3522      3518      3517      3520      3523
      3519      3517      3520      3521      3519      3517      3520      3522
      3519      3517      3520      3523      3520      3523      3526      3527
      3520      3523      3526      3528      3520      3523      3526      3529
      3521      3520      3523      3524      3521      3520      3523      3525
      3521      3520      3523      3526      3522      3520      3523      3524
      3522      3520      3523      3525      3522      3520      3523      3526
      3523      3526      3529      3530      3523      3526      3529      3531
      3523      3526      3529      3532      3524      3523      3526      3527
      3524      3523      3526      3528      3524      3523      3526      3529
      3525      3523      3526      3527      3525      3523      3526      3528
      3525      3523      3526      3529      3527      3526      3529      3530
      3527      3526      3529      3531      3527      3526      3529      3532
      3528      3526      3529      3530      3528      3526      3529      3531
      3528      3526      3529      3532      3533      3537      3540      3541
      3533      3537      3540      3571      3533      3579      3576      3571
      3533      3579      3576      3577      3533      3579      3576      3578
      3534      3533      3535      3536      3534      3533      3537      3538
      3534      3533      3537      3539      3534      3533      3537      3540
      3534      3533      3579      3576      3534      3533      3579      3580
      3534      3533      3579      3581      3535      3533      3537      3538
      3535      3533      3537      3539      3535      3533      3537      3540
      3535      3533      3579      3576      3535      3533      3579      3580
      3535      3533      3579      3581      3536      3535      3533      3537
      3536      3535      3533      3579      3537      3533      3579      3576
      3537      3533      3579      3580      3537      3533      3579      3581
      3537      3540      3541      3542      3537      3540      3541      3543
      3537      3540      3571      3569      3537      3540      3571      3572
      3537      3540      3571      3576      3538      3537      3533      3579
      3538      3537      3540      3541      3538      3537      3540      3571
      3539      3537      3533      3579      3539      3537      3540      3541
      3539      3537      3540      3571      3540      3537      3533      3579
      3540      3541      3543      3544      3540      3541      3543      3545
      3540      3541      3543      3546      3540      3571      3569      3546
      3540      3571      3569      3566      3540      3571      3569      3570
      3540      3571      3572      3573      3540      3571      3572      3574
      3540      3571      3572      3575      3540      3571      3576      3577
      3540      3571      3576      3578      3540      3571      3576      3579
      3541      3540      3571      3569      3541      3540      3571      3572
      3541      3540      3571      3576      3541      3543      3546      3547
      3541      3543      3546      3548      3541      3543      3546      3569
      3542      3541      3540      3571      3542      3541      3543      3544
      3542      3541      3543      3545      3542      3541      3543      3546
      3543      3541      3540      3571      3543      3546      3548      3549
      3543      3546      3548      3550      3543      3546      3548      3558
      3543      3546      3569      3566      3543      3546      3569      3570
      3543      3546      3569      3571      3544      3543      3546      3547
      3544      3543      3546      3548      3544      3543      3546      3569
      3545      3543      3546      3547      3545      3543      3546      3548
      3545      3543      3546      3569      3546      3548      3550      3551
      3546      3548      3550      3552      3546      3548      3550      3553
      3546      3548      3558      3556      3546      3548      3558      3559
      3546      3548      3558      3563      3546      3569      3566      3563
      3546      3569      3566      3567      3546      3569      3566      3568
      3546      3569      3571      3572      3546      3569      3571      3576
      3547      3546      3548      3549      3547      3546      3548      3550
      3547      3546      3548      3558      3547      3546      3569      3566
      3547      3546      3569      3570      3547      3546      3569      3571
      3548      3546      3569      3566      3548      3546      3569      3570
      3548      3546      3569      3571      3548      3550      3553      3554
      3548      3550      3553      3555      3548      3550      3553      3556
      3548      3558      3556      3553      3548      3558      3556      3557
      3548      3558      3556      3582      3548      3558      3559      3560
      3548      3558      3559      3561      3548      3558      3559      3562
      3548      3558      3563      3564      3548      3558      3563      3565
      3548      3558      3563      3566      3549      3548      3546      3569
      3549      3548      3550      3551      3549      3548      3550      3552
      3549      3548      3550      3553      3549      3548      3558      3556
      3549      3548      3558      3559      3549      3548      3558      3563
      3550      3548      3546      3569      3550      3548      3558      3556
      3550      3548      3558      3559      3550      3548      3558      3563
      3550      3553      3556      3557      3550      3553      3556      3558
      3550      3553      3556      3582      3551      3550      3548      3558
      3551      3550      3553      3554      3551      3550      3553      3555
      3551      3550      3553      3556      3552      3550      3548      3558
      3552      3550      3553      3554      3552      3550      3553      3555
      3552      3550      3553      3556      3553      3550      3548      3558
      3553      3556      3558      3559      3553      3556      3558      3563
      3553      3556      3582      3583      3553      3556      3582      3584
      3553      3556      3582      3588      3554      3553      3556      3557
      3554      3553      3556      3558      3554      3553      3556      3582
      3555      3553      3556      3557      3555      3553      3556      3558
      3555      3553      3556      3582      3556      3558      3559      3560
      3556      3558      3559      3561      3556      3558      3559      3562
      3556      3558      3563      3564      3556      3558      3563      3565
      3556      3558      3563      3566      3556      3582      3584      3585
      3556      3582      3584      3586      3556      3582      3584      3587
      3556      3582      3588      3589      3556      3582      3588      3590
      3556      3582      3588      3591      3557      3556      3558      3559
      3557      3556      3558      3563      3557      3556      3582      3583
      3557      3556      3582      3584      3557      3556      3582      3588
      3558      3548      3546      3569      3558      3556      3582      3583
      3558      3556      3582      3584      3558      3556      3582      3588
      3558      3563      3566      3567      3558      3563      3566      3568
      3558      3563      3566      3569      3559      3558      3556      3582
      3559      3558      3563      3564      3559      3558      3563      3565
      3559      3558      3563      3566      3560      3559      3558      3563
      3561      3559      3558      3563      3562      3559      3558      3563
      3563      3558      3556      3582      3563      3566      3569      3570
      3563      3566      3569      3571      3564      3563      3566      3567
      3564      3563      3566      3568      3564      3563      3566      3569
      3565      3563      3566      3567      3565      3563      3566      3568
      3565      3563      3566      3569      3566      3569      3571      3572
      3566      3569      3571      3576      3567      3566      3569      3570
      3567      3566      3569      3571      3568      3566      3569      3570
      3568      3566      3569      3571      3569      3571      3572      3573
      3569      3571      3572      3574      3569      3571      3572      3575
      3569      3571      3576      3577      3569      3571      3576      3578
      3569      3571      3576      3579      3570      3569      3571      3572
      3570      3569      3571      3576      3571      3576      3579      3580
      3571      3576      3579      3581      3572      3571      3576      3577
      3572      3571      3576      3578      3572      3571      3576      3579
      3573      3572      3571      3576      3574      3572      3571      3576
      3575      3572      3571      3576      3577      3576      3579      3580
      3577      3576      3579      3581      3578      3576      3579      3580
      3578      3576      3579      3581      3582      3588      3591      3592
      3582      3588      3591      3593      3582      3588      3591      3594
      3583      3582      3584      3585      3583      3582      3584      3586
      3583      3582      3584      3587      3583      3582      3588      3589
      3583      3582      3588      3590      3583      3582      3588      3591
      3584      3582      3588      3589      3584      3582      3588      3590
      3584      3582      3588      3591      3585      3584      3582      3588
      3586      3584      3582      3588      3587      3584      3582      3588
      3588      3591      3594      3595      3588      3591      3594      3596
      3588      3591      3594      3597      3589      3588      3591      3592
      3589      3588      3591      3593      3589      3588      3591      3594
      3590      3588      3591      3592      3590      3588      3591      3593
      3590      3588      3591      3594      3591      3594      3597      3598
      3591      3594      3597      3599      3591      3594      3597      3603
      3592      3591      3594      3595      3592      3591      3594      3596
      3592      3591      3594      3597      3593      3591      3594      3595
      3593      3591      3594      3596      3593      3591      3594      3597
      3594      3597      3599      3600      3594      3597      3599      3601
      3594      3597      3599      3602      3594      3597      3603      3604
      3594      3597      3603      3605      3594      3597      3603      3606
      3595      3594      3597      3598      3595      3594      3597      3599
      3595      3594      3597      3603      3596      3594      3597      3598
      3596      3594      3597      3599      3596      3594      3597      3603
      3598      3597      3599      3600      3598      3597      3599      3601
      3598      3597      3599      3602      3598      3597      3603      3604
      3598      3597      3603      3605      3598      3597      3603      3606
      3599      3597      3603      3604      3599      3597      3603      3605
      3599      3597      3603      3606      3600      3599      3597      3603
      3601      3599      3597      3603      3602      3599      3597      3603
      3607      3611      3614      3615      3607      3611      3614      3645
      3607      3653      3650      3645      3607      3653      3650      3651
      3607      3653      3650      3652      3608      3607      3609      3610
      3608      3607      3611      3612      3608      3607      3611      3613
      3608      3607      3611      3614      3608      3607      3653      3650
      3608      3607      3653      3654      3608      3607      3653      3655
      3609      3607      3611      3612      3609      3607      3611      3613
      3609      3607      3611      3614      3609      3607      3653      3650
      3609      3607      3653      3654      3609      3607      3653      3655
      3610      3609      3607      3611      3610      3609      3607      3653
      3611      3607      3653      3650      3611      3607      3653      3654
      3611      3607      3653      3655      3611      3614      3615      3616
      3611      3614      3615      3617      3611      3614      3645      3643
      3611      3614      3645      3646      3611      3614      3645      3650
      3612      3611      3607      3653      3612      3611      3614      3615
      3612      3611      3614      3645      3613      3611      3607      3653
      3613      3611      3614      3615      3613      3611      3614      3645
      3614      3611      3607      3653      3614      3615      3617      3618
      3614      3615      3617      3619      3614      3615      3617      3620
      3614      3645      3643      3620      3614      3645      3643      3640
      3614      3645      3643      3644      3614      3645      3646      3647
      3614      3645      3646      3648      3614      3645      3646      3649
      3614      3645      3650      3651      3614      3645      3650      3652
      3614      3645      3650      3653      3615      3614      3645      3643
      3615      3614      3645      3646      3615      3614      3645      3650
      3615      3617      3620      3621      3615      3617      3620      3622
      3615      3617      3620      3643      3616      3615      3614      3645
      3616      3615      3617      3618      3616      3615      3617      3619
      3616      3615      3617      3620      3617      3615      3614      3645
      3617      3620      3622      3623      3617      3620      3622      3624
      3617      3620      3622      3632      3617      3620      3643      3640
      3617      3620      3643      3644      3617      3620      3643      3645
      3618      3617      3620      3621      3618      3617      3620      3622
      3618      3617      3620      3643      3619      3617      3620      3621
      3619      3617      3620      3622      3619      3617      3620      3643
      3620      3622      3624      3625      3620      3622      3624      3626
      3620      3622      3624      3627      3620      3622      3632      3630
      3620      3622      3632      3633      3620      3622      3632      3637
      3620      3643      3640      3637      3620      3643      3640      3641
      3620      3643      3640      3642      3620      3643      3645      3646
      3620      3643      3645      3650      3621      3620      3622      3623
      3621      3620      3622      3624      3621      3620      3622      3632
      3621      3620      3643      3640      3621      3620      3643      3644
      3621      3620      3643      3645      3622      3620      3643      3640
      3622      3620      3643      3644      3622      3620      3643      3645
      3622      3624      3627      3628      3622      3624      3627      3629
      3622      3624      3627      3630      3622      3632      3630      3627
      3622      3632      3630      3631      3622      3632      3630      3656
      3622      3632      3633      3634      3622      3632      3633      3635
      3622      3632      3633      3636      3622      3632      3637      3638
      3622      3632      3637      3639      3622      3632      3637      3640
      3623      3622      3620      3643      3623      3622      3624      3625
      3623      3622      3624      3626      3623      3622      3624      3627
      3623      3622      3632      3630      3623      3622      3632      3633
      3623      3622      3632      3637      3624      3622      3620      3643
      3624      3622      3632      3630      3624      3622      3632      3633
      3624      3622      3632      3637      3624      3627      3630      3631
      3624      3627      3630      3632      3624      3627      3630      3656
      3625      3624      3622      3632      3625      3624      3627      3628
      3625      3624      3627      3629      3625      3624      3627      3630
      3626      3624      3622      3632      3626      3624      3627      3628
      3626      3624      3627      3629      3626      3624      3627      3630
      3627      3624      3622      3632      3627      3630      3632      3633
      3627      3630      3632      3637      3627      3630      3656      3657
      3627      3630      3656      3658      3627      3630      3656      3662
      3628      3627      3630      3631      3628      3627      3630      3632
      3628      3627      3630      3656      3629      3627      3630      3631
      3629      3627      3630      3632      3629      3627      3630      3656
      3630      3632      3633      3634      3630      3632      3633      3635
      3630      3632      3633      3636      3630      3632      3637      3638
      3630      3632      3637      3639      3630      3632      3637      3640
      3630      3656      3658      3659      3630      3656      3658      3660
      3630      3656      3658      3661      3630      3656      3662      3663
      3630      3656      3662      3664      3630      3656      3662      3665
      3631      3630      3632      3633      3631      3630      3632      3637
      3631      3630      3656      3657      3631      3630      3656      3658
      3631      3630      3656      3662      3632      3622      3620      3643
      3632      3630      3656      3657      3632      3630      3656      3658
      3632      3630      3656      3662      3632      3637      3640      3641
      3632      3637      3640      3642      3632      3637      3640      3643
      3633      3632      3630      3656      3633      3632      3637      3638
      3633      3632      3637      3639      3633      3632      3637      3640
      3634      3633      3632      3637      3635      3633      3632      3637
      3636      3633      3632      3637      3637      3632      3630      3656
      3637      3640      3643      3644      3637      3640      3643      3645
      3638      3637      3640      3641      3638      3637      3640      3642
      3638      3637      3640      3643      3639      3637      3640      3641
      3639      3637      3640      3642      3639      3637      3640      3643
      3640      3643      3645      3646      3640      3643      3645      3650
      3641      3640      3643      3644      3641      3640      3643      3645
      3642      3640      3643      3644      3642      3640      3643      3645
      3643      3645      3646      3647      3643      3645      3646      3648
      3643      3645      3646      3649      3643      3645      3650      3651
      3643      3645      3650      3652      3643      3645      3650      3653
      3644      3643      3645      3646      3644      3643      3645      3650
      3645      3650      3653      3654      3645      3650      3653      3655
      3646      3645      3650      3651      3646      3645      3650      3652
      3646      3645      3650      3653      3647      3646      3645      3650
      3648      3646      3645      3650      3649      3646      3645      3650
      3651      3650      3653      3654      3651      3650      3653      3655
      3652      3650      3653      3654      3652      3650      3653      3655
      3656      3662      3665      3666      3656      3662      3665      3667
      3656      3662      3665      3668      3657      3656      3658      3659
      3657      3656      3658      3660      3657      3656      3658      3661
      3657      3656      3662      3663      3657      3656      3662      3664
      3657      3656      3662      3665      3658      3656      3662      3663
      3658      3656      3662      3664      3658      3656      3662      3665
      3659      3658      3656      3662      3660      3658      3656      3662
      3661      3658      3656      3662      3662      3665      3668      3669
      3662      3665      3668      3670      3662      3665      3668      3671
      3663      3662      3665      3666      3663      3662      3665      3667
      3663      3662      3665      3668      3664      3662      3665      3666
      3664      3662      3665      3667      3664      3662      3665      3668
      3665      3668      3671      3672      3665      3668      3671      3673
      3665      3668      3671      3677      3666      3665      3668      3669
      3666      3665      3668      3670      3666      3665      3668      3671
      3667      3665      3668      3669      3667      3665      3668      3670
      3667      3665      3668      3671      3668      3671      3673      3674
      3668      3671      3673      3675      3668      3671      3673      3676
      3668      3671      3677      3678      3668      3671      3677      3679
      3668      3671      3677      3680      3669      3668      3671      3672
      3669      3668      3671      3673      3669      3668      3671      3677
      3670      3668      3671      3672      3670      3668      3671      3673
      3670      3668      3671      3677      3672      3671      3673      3674
      3672      3671      3673      3675      3672      3671      3673      3676
      3672      3671      3677      3678      3672      3671      3677      3679
      3672      3671      3677      3680      3673      3671      3677      3678
      3673      3671      3677      3679      3673      3671      3677      3680
      3674      3673      3671      3677      3675      3673      3671      3677
      3676      3673      3671      3677      3681      3694      3697      3698
      3681      3694      3697      3699      3681      3694      3697      3704
      3682      3681      3686      3687      3682      3681      3686      3688
      3682      3681      3686      3689      3682      3681      3690      3691
      3682      3681      3690      3692      3682      3681      3690      3693
      3682      3681      3694      3695      3682      3681      3694      3696
      3682      3681      3694      3697      3683      3682      3681      3686
      3683      3682      3681      3690      3683      3682      3681      3694
      3684      3682      3681      3686      3684      3682      3681      3690
      3684      3682      3681      3694      3685      3682      3681      3686
      3685      3682      3681      3690      3685      3682      3681      3694
      3686      3681      3690      3691      3686      3681      3690      3692
      3686      3681      3690      3693      3686      3681      3694      3695
      3686      3681      3694      3696      3686      3681      3694      3697
      3687      3686      3681      3690      3687      3686      3681      3694
      3688      3686      3681      3690      3688      3686      3681      3694
      3689      3686      3681      3690      3689      3686      3681      3694
      3690      3681      3694      3695      3690      3681      3694      3696
      3690      3681      3694      3697      3691      3690      3681      3694
      3692      3690      3681      3694      3693      3690      3681      3694
      3694      3697      3704      3700      3695      3694      3697      3698
      3695      3694      3697      3699      3695      3694      3697      3704
      3696      3694      3697      3698      3696      3694      3697      3699
      3696      3694      3697      3704      3697      3704      3700      3701
      3697      3704      3700      3702      3697      3704      3700      3703
      3698      3697      3704      3700      3699      3697      3704      3700
      3700      3703      3705      3706      3700      3703      3705      3707
      3700      3703      3705      3710      3701      3700      3703      3705
      3702      3700      3703      3705      3703      3705      3710      3708
      3703      3705      3710      3711      3703      3705      3710      3712
      3704      3700      3703      3705      3705      3710      3708      3709
      3705      3710      3708      3760      3705      3710      3712      3713
      3705      3710      3712      3714      3705      3710      3712      3716
      3706      3705      3710      3708      3706      3705      3710      3711
      3706      3705      3710      3712      3707      3705      3710      3708
      3707      3705      3710      3711      3707      3705      3710      3712
      3708      3710      3712      3713      3708      3710      3712      3714
      3708      3710      3712      3716      3708      3760      3762      3763
      3708      3760      3762      3764      3708      3760      3762      3765
      3709      3708      3710      3711      3709      3708      3710      3712
      3709      3708      3760      3761      3709      3708      3760      3762
      3710      3708      3760      3761      3710      3708      3760      3762
      3710      3712      3714      3715      3710      3712      3716      3717
      3710      3712      3716      3718      3711      3710      3708      3760
      3711      3710      3712      3713      3711      3710      3712      3714
      3711      3710      3712      3716      3712      3710      3708      3760
      3712      3716      3718      3719      3712      3716      3718      3720
      3713      3712      3714      3715      3713      3712      3716      3717
      3713      3712      3716      3718      3714      3712      3716      3717
      3714      3712      3716      3718      3715      3714      3712      3716
      3716      3718      3720      3721      3716      3718      3720      3722
      3716      3718      3720      3723      3717      3716      3718      3719
      3717      3716      3718      3720      3718      3720      3723      3724
      3718      3720      3723      3725      3718      3720      3723      3726
      3719      3718      3720      3721      3719      3718      3720      3722
      3719      3718      3720      3723      3720      3723      3726      3727
      3720      3723      3726      3728      3720      3723      3726      3729
      3721      3720      3723      3724      3721      3720      3723      3725
      3721      3720      3723      3726      3722      3720      3723      3724
      3722      3720      3723      3725      3722      3720      3723      3726
      3723      3726      3729      3730      3723      3726      3729      3731
      3723      3726      3729      3732      3724      3723      3726      3727
      3724      3723      3726      3728      3724      3723      3726      3729
      3725      3723      3726      3727      3725      3723      3726      3728
      3725      3723      3726      3729      3726      3729      3732      3733
      3726      3729      3732      3734      3726      3729      3732      3735
      3727      3726      3729      3730      3727      3726      3729      3731
      3727      3726      3729      3732      3728      3726      3729      3730
      3728      3726      3729      3731      3728      3726      3729      3732
      3729      3732      3735      3736      3729      3732      3735      3737
      3729      3732      3735      3738      3730      3729      3732      3733
      3730      3729      3732      3734      3730      3729      3732      3735
      3731      3729      3732      3733      3731      3729      3732      3734
      3731      3729      3732      3735      3732      3735      3738      3739
      3732      3735      3738      3740      3732      3735      3738      3741
      3733      3732      3735      3736      3733      3732      3735      3737
      3733      3732      3735      3738      3734      3732      3735      3736
      3734      3732      3735      3737      3734      3732      3735      3738
      3735      3738      3741      3742      3735      3738      3741      3743
      3735      3738      3741      3744      3736      3735      3738      3739
      3736      3735      3738      3740      3736      3735      3738      3741
      3737      3735      3738      3739      3737      3735      3738      3740
      3737      3735      3738      3741      3738      3741      3744      3745
      3738      3741      3744      3746      3738      3741      3744      3747
      3739      3738      3741      3742      3739      3738      3741      3743
      3739      3738      3741      3744      3740      3738      3741      3742
      3740      3738      3741      3743      3740      3738      3741      3744
      3741      3744      3747      3748      3741      3744      3747      3749
      3741      3744      3747      3750      3742      3741      3744      3745
      3742      3741      3744      3746      3742      3741      3744      3747
      3743      3741      3744      3745      3743      3741      3744      3746
      3743      3741      3744      3747      3744      3747      3750      3751
      3744      3747      3750      3752      3744      3747      3750      3753
      3745      3744      3747      3748      3745      3744      3747      3749
      3745      3744      3747      3750      3746      3744      3747      3748
      3746      3744      3747      3749      3746      3744      3747      3750
      3747      3750      3753      3754      3747      3750      3753      3755
      3747      3750      3753      3756      3748      3747      3750      3751
      3748      3747      3750      3752      3748      3747      3750      3753
      3749      3747      3750      3751      3749      3747      3750      3752
      3749      3747      3750      3753      3750      3753      3756      3757
      3750      3753      3756      3758      3750      3753      3756      3759
      3751      3750      3753      3754      3751      3750      3753      3755
      3751      3750      3753      3756      3752      3750      3753      3754
      3752      3750      3753      3755      3752      3750      3753      3756
      3754      3753      3756      3757      3754      3753      3756      3758
      3754      3753      3756      3759      3755      3753      3756      3757
      3755      3753      3756      3758      3755      3753      3756      3759
      3760      3762      3765      3766      3760      3762      3765      3767
      3760      3762      3765      3768      3761      3760      3762      3763
      3761      3760      3762      3764      3761      3760      3762      3765
      3762      3765      3768      3769      3762      3765      3768      3770
      3762      3765      3768      3771      3763      3762      3765      3766
      3763      3762      3765      3767      3763      3762      3765      3768
      3764      3762      3765      3766      3764      3762      3765      3767
      3764      3762      3765      3768      3765      3768      3771      3772
      3765      3768      3771      3773      3765      3768      3771      3774
      3766      3765      3768      3769      3766      3765      3768      3770
      3766      3765      3768      3771      3767      3765      3768      3769
      3767      3765      3768      3770      3767      3765      3768      3771
      3768      3771      3774      3775      3768      3771      3774      3776
      3768      3771      3774      3777      3769      3768      3771      3772
      3769      3768      3771      3773      3769      3768      3771      3774
      3770      3768      3771      3772      3770      3768      3771      3773
      3770      3768      3771      3774      3771      3774      3777      3778
      3771      3774      3777      3779      3771      3774      3777      3780
      3772      3771      3774      3775      3772      3771      3774      3776
      3772      3771      3774      3777      3773      3771      3774      3775
      3773      3771      3774      3776      3773      3771      3774      3777
      3774      3777      3780      3781      3774      3777      3780      3782
      3774      3777      3780      3783      3775      3774      3777      3778
      3775      3774      3777      3779      3775      3774      3777      3780
      3776      3774      3777      3778      3776      3774      3777      3779
      3776      3774      3777      3780      3777      3780      3783      3784
      3777      3780      3783      3785      3777      3780      3783      3786
      3778      3777      3780      3781      3778      3777      3780      3782
      3778      3777      3780      3783      3779      3777      3780      3781
      3779      3777      3780      3782      3779      3777      3780      3783
      3780      3783      3786      3787      3780      3783      3786      3788
      3780      3783      3786      3789      3781      3780      3783      3784
      3781      3780      3783      3785      3781      3780      3783      3786
      3782      3780      3783      3784      3782      3780      3783      3785
      3782      3780      3783      3786      3783      3786      3789      3790
      3783      3786      3789      3791      3783      3786      3789      3792
      3784      3783      3786      3787      3784      3783      3786      3788
      3784      3783      3786      3789      3785      3783      3786      3787
      3785      3783      3786      3788      3785      3783      3786      3789
      3786      3789      3792      3793      3786      3789      3792      3794
      3786      3789      3792      3795      3787      3786      3789      3790
      3787      3786      3789      3791      3787      3786      3789      3792
      3788      3786      3789      3790      3788      3786      3789      3791
      3788      3786      3789      3792      3789      3792      3795      3796
      3789      3792      3795      3797      3789      3792      3795      3798
      3790      3789      3792      3793      3790      3789      3792      3794
      3790      3789      3792      3795      3791      3789      3792      3793
      3791      3789      3792      3794      3791      3789      3792      3795
      3792      3795      3798      3799      3792      3795      3798      3800
      3792      3795      3798      3801      3793      3792      3795      3796
      3793      3792      3795      3797      3793      3792      3795      3798
      3794      3792      3795      3796      3794      3792      3795      3797
      3794      3792      3795      3798      3795      3798      3801      3802
      3795      3798      3801      3803      3795      3798      3801      3804
      3796      3795      3798      3799      3796      3795      3798      3800
      3796      3795      3798      3801      3797      3795      3798      3799
      3797      3795      3798      3800      3797      3795      3798      3801
      3798      3801      3804      3805      3798      3801      3804      3806
      3798      3801      3804      3807      3799      3798      3801      3802
      3799      3798      3801      3803      3799      3798      3801      3804
      3800      3798      3801      3802      3800      3798      3801      3803
      3800      3798      3801      3804      3801      3804      3807      3808
      3801      3804      3807      3809      3801      3804      3807      3810
      3802      3801      3804      3805      3802      3801      3804      3806
      3802      3801      3804      3807      3803      3801      3804      3805
      3803      3801      3804      3806      3803      3801      3804      3807
      3804      3807      3810      3811      3804      3807      3810      3812
      3804      3807      3810      3813      3805      3804      3807      3808
      3805      3804      3807      3809      3805      3804      3807      3810
      3806      3804      3807      3808      3806      3804      3807      3809
      3806      3804      3807      3810      3807      3810      3813      3814
      3807      3810      3813      3815      3807      3810      3813      3816
      3808      3807      3810      3811      3808      3807      3810      3812
      3808      3807      3810      3813      3809      3807      3810      3811
      3809      3807      3810      3812      3809      3807      3810      3813
      3810      3813      3816      3817      3810      3813      3816      3818
      3810      3813      3816      3819      3811      3810      3813      3814
      3811      3810      3813      3815      3811      3810      3813      3816
      3812      3810      3813      3814      3812      3810      3813      3815
      3812      3810      3813      3816      3813      3816      3819      3820
      3813      3816      3819      3821      3813      3816      3819      3822
      3814      3813      3816      3817      3814      3813      3816      3818
      3814      3813      3816      3819      3815      3813      3816      3817
      3815      3813      3816      3818      3815      3813      3816      3819
      3816      3819      3822      3823      3816      3819      3822      3824
      3816      3819      3822      3825      3817      3816      3819      3820
      3817      3816      3819      3821      3817      3816      3819      3822
      3818      3816      3819      3820      3818      3816      3819      3821
      3818      3816      3819      3822      3819      3822      3825      3826
      3819      3822      3825      3827      3819      3822      3825      3828
      3820      3819      3822      3823      3820      3819      3822      3824
      3820      3819      3822      3825      3821      3819      3822      3823
      3821      3819      3822      3824      3821      3819      3822      3825
      3823      3822      3825      3826      3823      3822      3825      3827
      3823      3822      3825      3828      3824      3822      3825      3826
      3824      3822      3825      3827      3824      3822      3825      3828
      3829      3842      3845      3846      3829      3842      3845      3847
      3829      3842      3845      3852      3830      3829      3834      3835
      3830      3829      3834      3836      3830      3829      3834      3837
      3830      3829      3838      3839      3830      3829      3838      3840
      3830      3829      3838      3841      3830      3829      3842      3843
      3830      3829      3842      3844      3830      3829      3842      3845
      3831      3830      3829      3834      3831      3830      3829      3838
      3831      3830      3829      3842      3832      3830      3829      3834
      3832      3830      3829      3838      3832      3830      3829      3842
      3833      3830      3829      3834      3833      3830      3829      3838
      3833      3830      3829      3842      3834      3829      3838      3839
      3834      3829      3838      3840      3834      3829      3838      3841
      3834      3829      3842      3843      3834      3829      3842      3844
      3834      3829      3842      3845      3835      3834      3829      3838
      3835      3834      3829      3842      3836      3834      3829      3838
      3836      3834      3829      3842      3837      3834      3829      3838
      3837      3834      3829      3842      3838      3829      3842      3843
      3838      3829      3842      3844      3838      3829      3842      3845
      3839      3838      3829      3842      3840      3838      3829      3842
      3841      3838      3829      3842      3842      3845      3852      3848
      3843      3842      3845      3846      3843      3842      3845      3847
      3843      3842      3845      3852      3844      3842      3845      3846
      3844      3842      3845      3847      3844      3842      3845      3852
      3845      3852      3848      3849      3845      3852      3848      3850
      3845      3852      3848      3851      3846      3845      3852      3848
      3847      3845      3852      3848      3848      3851      3853      3854
      3848      3851      3853      3855      3848      3851      3853      3858
      3849      3848      3851      3853      3850      3848      3851      3853
      3851      3853      3858      3856      3851      3853      3858      3859
      3851      3853      3858      3860      3852      3848      3851      3853
      3853      3858      3856      3857      3853      3858      3856      3908
      3853      3858      3860      3861      3853      3858      3860      3862
      3853      3858      3860      3864      3854      3853      3858      3856
      3854      3853      3858      3859      3854      3853      3858      3860
      3855      3853      3858      3856      3855      3853      3858      3859
      3855      3853      3858      3860      3856      3858      3860      3861
      3856      3858      3860      3862      3856      3858      3860      3864
      3856      3908      3910      3911      3856      3908      3910      3912
      3856      3908      3910      3913      3857      3856      3858      3859
      3857      3856      3858      3860      3857      3856      3908      3909
      3857      3856      3908      3910      3858      3856      3908      3909
      3858      3856      3908      3910      3858      3860      3862      3863
      3858      3860      3864      3865      3858      3860      3864      3866
      3859      3858      3856      3908      3859      3858      3860      3861
      3859      3858      3860      3862      3859      3858      3860      3864
      3860      3858      3856      3908      3860      3864      3866      3867
      3860      3864      3866      3868      3861      3860      3862      3863
      3861      3860      3864      3865      3861      3860      3864      3866
      3862      3860      3864      3865      3862      3860      3864      3866
      3863      3862      3860      3864      3864      3866      3868      3869
      3864      3866      3868      3870      3864      3866      3868      3871
      3865      3864      3866      3867      3865      3864      3866      3868
      3866      3868      3871      3872      3866      3868      3871      3873
      3866      3868      3871      3874      3867      3866      3868      3869
      3867      3866      3868      3870      3867      3866      3868      3871
      3868      3871      3874      3875      3868      3871      3874      3876
      3868      3871      3874      3877      3869      3868      3871      3872
      3869      3868      3871      3873      3869      3868      3871      3874
      3870      3868      3871      3872      3870      3868      3871      3873
      3870      3868      3871      3874      3871      3874      3877      3878
      3871      3874      3877      3879      3871      3874      3877      3880
      3872      3871      3874      3875      3872      3871      3874      3876
      3872      3871      3874      3877      3873      3871      3874      3875
      3873      3871      3874      3876      3873      3871      3874      3877
      3874      3877      3880      3881      3874      3877      3880      3882
      3874      3877      3880      3883      3875      3874      3877      3878
      3875      3874      3877      3879      3875      3874      3877      3880
      3876      3874      3877      3878      3876      3874      3877      3879
      3876      3874      3877      3880      3877      3880      3883      3884
      3877      3880      3883      3885      3877      3880      3883      3886
      3878      3877      3880      3881      3878      3877      3880      3882
      3878      3877      3880      3883      3879      3877      3880      3881
      3879      3877      3880      3882      3879      3877      3880      3883
      3880      3883      3886      3887      3880      3883      3886      3888
      3880      3883      3886      3889      3881      3880      3883      3884
      3881      3880      3883      3885      3881      3880      3883      3886
      3882      3880      3883      3884      3882      3880      3883      3885
      3882      3880      3883      3886      3883      3886      3889      3890
      3883      3886      3889      3891      3883      3886      3889      3892
      3884      3883      3886      3887      3884      3883      3886      3888
      3884      3883      3886      3889      3885      3883      3886      3887
      3885      3883      3886      3888      3885      3883      3886      3889
      3886      3889      3892      3893      3886      3889      3892      3894
      3886      3889      3892      3895      3887      3886      3889      3890
      3887      3886      3889      3891      3887      3886      3889      3892
      3888      3886      3889      3890      3888      3886      3889      3891
      3888      3886      3889      3892      3889      3892      3895      3896
      3889      3892      3895      3897      3889      3892      3895      3898
      3890      3889      3892      3893      3890      3889      3892      3894
      3890      3889      3892      3895      3891      3889      3892      3893
      3891      3889      3892      3894      3891      3889      3892      3895
      3892      3895      3898      3899      3892      3895      3898      3900
      3892      3895      3898      3901      3893      3892      3895      3896
      3893      3892      3895      3897      3893      3892      3895      3898
      3894      3892      3895      3896      3894      3892      3895      3897
      3894      3892      3895      3898      3895      3898      3901      3902
      3895      3898      3901      3903      3895      3898      3901      3904
      3896      3895      3898      3899      3896      3895      3898      3900
      3896      3895      3898      3901      3897      3895      3898      3899
      3897      3895      3898      3900      3897      3895      3898      3901
      3898      3901      3904      3905      3898      3901      3904      3906
      3898      3901      3904      3907      3899      3898      3901      3902
      3899      3898      3901      3903      3899      3898      3901      3904
      3900      3898      3901      3902      3900      3898      3901      3903
      3900      3898      3901      3904      3902      3901      3904      3905
      3902      3901      3904      3906      3902      3901      3904      3907
      3903      3901      3904      3905      3903      3901      3904      3906
      3903      3901      3904      3907      3908      3910      3913      3914
      3908      3910      3913      3915      3908      3910      3913      3916
      3909      3908      3910      3911      3909      3908      3910      3912
      3909      3908      3910      3913      3910      3913      3916      3917
      3910      3913      3916      3918      3910      3913      3916      3919
      3911      3910      3913      3914      3911      3910      3913      3915
      3911      3910      3913      3916      3912      3910      3913      3914
      3912      3910      3913      3915      3912      3910      3913      3916
      3913      3916      3919      3920      3913      3916      3919      3921
      3913      3916      3919      3922      3914      3913      3916      3917
      3914      3913      3916      3918      3914      3913      3916      3919
      3915      3913      3916      3917      3915      3913      3916      3918
      3915      3913      3916      3919      3916      3919      3922      3923
      3916      3919      3922      3924      3916      3919      3922      3925
      3917      3916      3919      3920      3917      3916      3919      3921
      3917      3916      3919      3922      3918      3916      3919      3920
      3918      3916      3919      3921      3918      3916      3919      3922
      3919      3922      3925      3926      3919      3922      3925      3927
      3919      3922      3925      3928      3920      3919      3922      3923
      3920      3919      3922      3924      3920      3919      3922      3925
      3921      3919      3922      3923      3921      3919      3922      3924
      3921      3919      3922      3925      3922      3925      3928      3929
      3922      3925      3928      3930      3922      3925      3928      3931
      3923      3922      3925      3926      3923      3922      3925      3927
      3923      3922      3925      3928      3924      3922      3925      3926
      3924      3922      3925      3927      3924      3922      3925      3928
      3925      3928      3931      3932      3925      3928      3931      3933
      3925      3928      3931      3934      3926      3925      3928      3929
      3926      3925      3928      3930      3926      3925      3928      3931
      3927      3925      3928      3929      3927      3925      3928      3930
      3927      3925      3928      3931      3928      3931      3934      3935
      3928      3931      3934      3936      3928      3931      3934      3937
      3929      3928      3931      3932      3929      3928      3931      3933
      3929      3928      3931      3934      3930      3928      3931      3932
      3930      3928      3931      3933      3930      3928      3931      3934
      3931      3934      3937      3938      3931      3934      3937      3939
      3931      3934      3937      3940      3932      3931      3934      3935
      3932      3931      3934      3936      3932      3931      3934      3937
      3933      3931      3934      3935      3933      3931      3934      3936
      3933      3931      3934      3937      3934      3937      3940      3941
      3934      3937      3940      3942      3934      3937      3940      3943
      3935      3934      3937      3938      3935      3934      3937      3939
      3935      3934      3937      3940      3936      3934      3937      3938
      3936      3934      3937      3939      3936      3934      3937      3940
      3937      3940      3943      3944      3937      3940      3943      3945
      3937      3940      3943      3946      3938      3937      3940      3941
      3938      3937      3940      3942      3938      3937      3940      3943
      3939      3937      3940      3941      3939      3937      3940      3942
      3939      3937      3940      3943      3940      3943      3946      3947
      3940      3943      3946      3948      3940      3943      3946      3949
      3941      3940      3943      3944      3941      3940      3943      3945
      3941      3940      3943      3946      3942      3940      3943      3944
      3942      3940      3943      3945      3942      3940      3943      3946
      3943      3946      3949      3950      3943      3946      3949      3951
      3943      3946      3949      3952      3944      3943      3946      3947
      3944      3943      3946      3948      3944      3943      3946      3949
      3945      3943      3946      3947      3945      3943      3946      3948
      3945      3943      3946      3949      3946      3949      3952      3953
      3946      3949      3952      3954      3946      3949      3952      3955
      3947      3946      3949      3950      3947      3946      3949      3951
      3947      3946      3949      3952      3948      3946      3949      3950
      3948      3946      3949      3951      3948      3946      3949      3952
      3949      3952      3955      3956      3949      3952      3955      3957
      3949      3952      3955      3958      3950      3949      3952      3953
      3950      3949      3952      3954      3950      3949      3952      3955
      3951      3949      3952      3953      3951      3949      3952      3954
      3951      3949      3952      3955      3952      3955      3958      3959
      3952      3955      3958      3960      3952      3955      3958      3961
      3953      3952      3955      3956      3953      3952      3955      3957
      3953      3952      3955      3958      3954      3952      3955      3956
      3954      3952      3955      3957      3954      3952      3955      3958
      3955      3958      3961      3962      3955      3958      3961      3963
      3955      3958      3961      3964      3956      3955      3958      3959
      3956      3955      3958      3960      3956      3955      3958      3961
      3957      3955      3958      3959      3957      3955      3958      3960
      3957      3955      3958      3961      3958      3961      3964      3965
      3958      3961      3964      3966      3958      3961      3964      3967
      3959      3958      3961      3962      3959      3958      3961      3963
      3959      3958      3961      3964      3960      3958      3961      3962
      3960      3958      3961      3963      3960      3958      3961      3964
      3961      3964      3967      3968      3961      3964      3967      3969
      3961      3964      3967      3970      3962      3961      3964      3965
      3962      3961      3964      3966      3962      3961      3964      3967
      3963      3961      3964      3965      3963      3961      3964      3966
      3963      3961      3964      3967      3964      3967      3970      3971
      3964      3967      3970      3972      3964      3967      3970      3973
      3965      3964      3967      3968      3965      3964      3967      3969
      3965      3964      3967      3970      3966      3964      3967      3968
      3966      3964      3967      3969      3966      3964      3967      3970
      3967      3970      3973      3974      3967      3970      3973      3975
      3967      3970      3973      3976      3968      3967      3970      3971
      3968      3967      3970      3972      3968      3967      3970      3973
      3969      3967      3970      3971      3969      3967      3970      3972
      3969      3967      3970      3973      3971      3970      3973      3974
      3971      3970      3973      3975      3971      3970      3973      3976
      3972      3970      3973      3974      3972      3970      3973      3975
      3972      3970      3973      3976      3977      3981      3984      3985
      3977      3981      3984      4015      3977      4023      4020      4015
      3977      4023      4020      4021      3977      4023      4020      4022
      3978      3977      3979      3980      3978      3977      3981      3982
      3978      3977      3981      3983      3978      3977      3981      3984
      3978      3977      4023      4020      3978      3977      4023      4024
      3978      3977      4023      4025      3979      3977      3981      3982
      3979      3977      3981      3983      3979      3977      3981      3984
      3979      3977      4023      4020      3979      3977      4023      4024
      3979      3977      4023      4025      3980      3979      3977      3981
      3980      3979      3977      4023      3981      3977      4023      4020
      3981      3977      4023      4024      3981      3977      4023      4025
      3981      3984      3985      3986      3981      3984      3985      3987
      3981      3984      4015      4013      3981      3984      4015      4016
      3981      3984      4015      4020      3982      3981      3977      4023
      3982      3981      3984      3985      3982      3981      3984      4015
      3983      3981      3977      4023      3983      3981      3984      3985
      3983      3981      3984      4015      3984      3981      3977      4023
      3984      3985      3987      3988      3984      3985      3987      3989
      3984      3985      3987      3990      3984      4015      4013      3990
      3984      4015      4013      4010      3984      4015      4013      4014
      3984      4015      4016      4017      3984      4015      4016      4018
      3984      4015      4016      4019      3984      4015      4020      4021
      3984      4015      4020      4022      3984      4015      4020      4023
      3985      3984      4015      4013      3985      3984      4015      4016
      3985      3984      4015      4020      3985      3987      3990      3991
      3985      3987      3990      3992      3985      3987      3990      4013
      3986      3985      3984      4015      3986      3985      3987      3988
      3986      3985      3987      3989      3986      3985      3987      3990
      3987      3985      3984      4015      3987      3990      3992      3993
      3987      3990      3992      3994      3987      3990      3992      4002
      3987      3990      4013      4010      3987      3990      4013      4014
      3987      3990      4013      4015      3988      3987      3990      3991
      3988      3987      3990      3992      3988      3987      3990      4013
      3989      3987      3990      3991      3989      3987      3990      3992
      3989      3987      3990      4013      3990      3992      3994      3995
      3990      3992      3994      3996      3990      3992      3994      3997
      3990      3992      4002      4000      3990      3992      4002      4003
      3990      3992      4002      4007      3990      4013      4010      4007
      3990      4013      4010      4011      3990      4013      4010      4012
      3990      4013      4015      4016      3990      4013      4015      4020
      3991      3990      3992      3993      3991      3990      3992      3994
      3991      3990      3992      4002      3991      3990      4013      4010
      3991      3990      4013      4014      3991      3990      4013      4015
      3992      3990      4013      4010      3992      3990      4013      4014
      3992      3990      4013      4015      3992      3994      3997      3998
      3992      3994      3997      3999      3992      3994      3997      4000
      3992      4002      4000      3997      3992      4002      4000      4001
      3992      4002      4000      4026      3992      4002      4003      4004
      3992      4002      4003      4005      3992      4002      4003      4006
      3992      4002      4007      4008      3992      4002      4007      4009
      3992      4002      4007      4010      3993      3992      3990      4013
      3993      3992      3994      3995      3993      3992      3994      3996
      3993      3992      3994      3997      3993      3992      4002      4000
      3993      3992      4002      4003      3993      3992      4002      4007
      3994      3992      3990      4013      3994      3992      4002      4000
      3994      3992      4002      4003      3994      3992      4002      4007
      3994      3997      4000      4001      3994      3997      4000      4002
      3994      3997      4000      4026      3995      3994      3992      4002
      3995      3994      3997      3998      3995      3994      3997      3999
      3995      3994      3997      4000      3996      3994      3992      4002
      3996      3994      3997      3998      3996      3994      3997      3999
      3996      3994      3997      4000      3997      3994      3992      4002
      3997      4000      4002      4003      3997      4000      4002      4007
      3997      4000      4026      4027      3997      4000      4026      4028
      3997      4000      4026      4032      3998      3997      4000      4001
      3998      3997      4000      4002      3998      3997      4000      4026
      3999      3997      4000      4001      3999      3997      4000      4002
      3999      3997      4000      4026      4000      4002      4003      4004
      4000      4002      4003      4005      4000      4002      4003      4006
      4000      4002      4007      4008      4000      4002      4007      4009
      4000      4002      4007      4010      4000      4026      4028      4029
      4000      4026      4028      4030      4000      4026      4028      4031
      4000      4026      4032      4033      4000      4026      4032      4034
      4000      4026      4032      4035      4001      4000      4002      4003
      4001      4000      4002      4007      4001      4000      4026      4027
      4001      4000      4026      4028      4001      4000      4026      4032
      4002      3992      3990      4013      4002      4000      4026      4027
      4002      4000      4026      4028      4002      4000      4026      4032
      4002      4007      4010      4011      4002      4007      4010      4012
      4002      4007      4010      4013      4003      4002      4000      4026
      4003      4002      4007      4008      4003      4002      4007      4009
      4003      4002      4007      4010      4004      4003      4002      4007
      4005      4003      4002      4007      4006      4003      4002      4007
      4007      4002      4000      4026      4007      4010      4013      4014
      4007      4010      4013      4015      4008      4007      4010      4011
      4008      4007      4010      4012      4008      4007      4010      4013
      4009      4007      4010      4011      4009      4007      4010      4012
      4009      4007      4010      4013      4010      4013      4015      4016
      4010      4013      4015      4020      4011      4010      4013      4014
      4011      4010      4013      4015      4012      4010      4013      4014
      4012      4010      4013      4015      4013      4015      4016      4017
      4013      4015      4016      4018      4013      4015      4016      4019
      4013      4015      4020      4021      4013      4015      4020      4022
      4013      4015      4020      4023      4014      4013      4015      4016
      4014      4013      4015      4020      4015      4020      4023      4024
      4015      4020      4023      4025      4016      4015      4020      4021
      4016      4015      4020      4022      4016      4015      4020      4023
      4017      4016      4015      4020      4018      4016      4015      4020
      4019      4016      4015      4020      4021      4020      4023      4024
      4021      4020      4023      4025      4022      4020      4023      4024
      4022      4020      4023      4025      4026      4032      4035      4036
      4026      4032      4035      4037      4026      4032      4035      4038
      4027      4026      4028      4029      4027      4026      4028      4030
      4027      4026      4028      4031      4027      4026      4032      4033
      4027      4026      4032      4034      4027      4026      4032      4035
      4028      4026      4032      4033      4028      4026      4032      4034
      4028      4026      4032      4035      4029      4028      4026      4032
      4030      4028      4026      4032      4031      4028      4026      4032
      4032      4035      4038      4039      4032      4035      4038      4040
      4032      4035      4038      4041      4033      4032      4035      4036
      4033      4032      4035      4037      4033      4032      4035      4038
      4034      4032      4035      4036      4034      4032      4035      4037
      4034      4032      4035      4038      4035      4038      4041      4042
      4035      4038      4041      4043      4035      4038      4041      4047
      4036      4035      4038      4039      4036      4035      4038      4040
      4036      4035      4038      4041      4037      4035      4038      4039
      4037      4035      4038      4040      4037      4035      4038      4041
      4038      4041      4043      4044      4038      4041      4043      4045
      4038      4041      4043      4046      4038      4041      4047      4048
      4038      4041      4047      4049      4038      4041      4047      4050
      4039      4038      4041      4042      4039      4038      4041      4043
      4039      4038      4041      4047      4040      4038      4041      4042
      4040      4038      4041      4043      4040      4038      4041      4047
      4042      4041      4043      4044      4042      4041      4043      4045
      4042      4041      4043      4046      4042      4041      4047      4048
      4042      4041      4047      4049      4042      4041      4047      4050
      4043      4041      4047      4048      4043      4041      4047      4049
      4043      4041      4047      4050      4044      4043      4041      4047
      4045      4043      4041      4047      4046      4043      4041      4047
      4051      4064      4067      4068      4051      4064      4067      4069
      4051      4064      4067      4074      4052      4051      4056      4057
      4052      4051      4056      4058      4052      4051      4056      4059
      4052      4051      4060      4061      4052      4051      4060      4062
      4052      4051      4060      4063      4052      4051      4064      4065
      4052      4051      4064      4066      4052      4051      4064      4067
      4053      4052      4051      4056      4053      4052      4051      4060
      4053      4052      4051      4064      4054      4052      4051      4056
      4054      4052      4051      4060      4054      4052      4051      4064
      4055      4052      4051      4056      4055      4052      4051      4060
      4055      4052      4051      4064      4056      4051      4060      4061
      4056      4051      4060      4062      4056      4051      4060      4063
      4056      4051      4064      4065      4056      4051      4064      4066
      4056      4051      4064      4067      4057      4056      4051      4060
      4057      4056      4051      4064      4058      4056      4051      4060
      4058      4056      4051      4064      4059      4056      4051      4060
      4059      4056      4051      4064      4060      4051      4064      4065
      4060      4051      4064      4066      4060      4051      4064      4067
      4061      4060      4051      4064      4062      4060      4051      4064
      4063      4060      4051      4064      4064      4067      4074      4070
      4065      4064      4067      4068      4065      4064      4067      4069
      4065      4064      4067      4074      4066      4064      4067      4068
      4066      4064      4067      4069      4066      4064      4067      4074
      4067      4074      4070      4071      4067      4074      4070      4072
      4067      4074      4070      4073      4068      4067      4074      4070
      4069      4067      4074      4070      4070      4073      4075      4076
      4070      4073      4075      4077      4070      4073      4075      4080
      4071      4070      4073      4075      4072      4070      4073      4075
      4073      4075      4080      4078      4073      4075      4080      4081
      4073      4075      4080      4082      4074      4070      4073      4075
      4075      4080      4078      4079      4075      4080      4078      4130
      4075      4080      4082      4083      4075      4080      4082      4084
      4075      4080      4082      4086      4076      4075      4080      4078
      4076      4075      4080      4081      4076      4075      4080      4082
      4077      4075      4080      4078      4077      4075      4080      4081
      4077      4075      4080      4082      4078      4080      4082      4083
      4078      4080      4082      4084      4078      4080      4082      4086
      4078      4130      4132      4133      4078      4130      4132      4134
      4078      4130      4132      4135      4079      4078      4080      4081
      4079      4078      4080      4082      4079      4078      4130      4131
      4079      4078      4130      4132      4080      4078      4130      4131
      4080      4078      4130      4132      4080      4082      4084      4085
      4080      4082      4086      4087      4080      4082      4086      4088
      4081      4080      4078      4130      4081      4080      4082      4083
      4081      4080      4082      4084      4081      4080      4082      4086
      4082      4080      4078      4130      4082      4086      4088      4089
      4082      4086      4088      4090      4083      4082      4084      4085
      4083      4082      4086      4087      4083      4082      4086      4088
      4084      4082      4086      4087      4084      4082      4086      4088
      4085      4084      4082      4086      4086      4088      4090      4091
      4086      4088      4090      4092      4086      4088      4090      4093
      4087      4086      4088      4089      4087      4086      4088      4090
      4088      4090      4093      4094      4088      4090      4093      4095
      4088      4090      4093      4096      4089      4088      4090      4091
      4089      4088      4090      4092      4089      4088      4090      4093
      4090      4093      4096      4097      4090      4093      4096      4098
      4090      4093      4096      4099      4091      4090      4093      4094
      4091      4090      4093      4095      4091      4090      4093      4096
      4092      4090      4093      4094      4092      4090      4093      4095
      4092      4090      4093      4096      4093      4096      4099      4100
      4093      4096      4099      4101      4093      4096      4099      4102
      4094      4093      4096      4097      4094      4093      4096      4098
      4094      4093      4096      4099      4095      4093      4096      4097
      4095      4093      4096      4098      4095      4093      4096      4099
      4096      4099      4102      4103      4096      4099      4102      4104
      4096      4099      4102      4105      4097      4096      4099      4100
      4097      4096      4099      4101      4097      4096      4099      4102
      4098      4096      4099      4100      4098      4096      4099      4101
      4098      4096      4099      4102      4099      4102      4105      4106
      4099      4102      4105      4107      4099      4102      4105      4108
      4100      4099      4102      4103      4100      4099      4102      4104
      4100      4099      4102      4105      4101      4099      4102      4103
      4101      4099      4102      4104      4101      4099      4102      4105
      4102      4105      4108      4109      4102      4105      4108      4110
      4102      4105      4108      4111      4103      4102      4105      4106
      4103      4102      4105      4107      4103      4102      4105      4108
      4104      4102      4105      4106      4104      4102      4105      4107
      4104      4102      4105      4108      4105      4108      4111      4112
      4105      4108      4111      4113      4105      4108      4111      4114
      4106      4105      4108      4109      4106      4105      4108      4110
      4106      4105      4108      4111      4107      4105      4108      4109
      4107      4105      4108      4110      4107      4105      4108      4111
      4108      4111      4114      4115      4108      4111      4114      4116
      4108      4111      4114      4117      4109      4108      4111      4112
      4109      4108      4111      4113      4109      4108      4111      4114
      4110      4108      4111      4112      4110      4108      4111      4113
      4110      4108      4111      4114      4111      4114      4117      4118
      4111      4114      4117      4119      4111      4114      4117      4120
      4112      4111      4114      4115      4112      4111      4114      4116
      4112      4111      4114      4117      4113      4111      4114      4115
      4113      4111      4114      4116      4113      4111      4114      4117
      4114      4117      4120      4121      4114      4117      4120      4122
      4114      4117      4120      4123      4115      4114      4117      4118
      4115      4114      4117      4119      4115      4114      4117      4120
      4116      4114      4117      4118      4116      4114      4117      4119
      4116      4114      4117      4120      4117      4120      4123      4124
      4117      4120      4123      4125      4117      4120      4123      4126
      4118      4117      4120      4121      4118      4117      4120      4122
      4118      4117      4120      4123      4119      4117      4120      4121
      4119      4117      4120      4122      4119      4117      4120      4123
      4120      4123      4126      4127      4120      4123      4126      4128
      4120      4123      4126      4129      4121      4120      4123      4124
      4121      4120      4123      4125      4121      4120      4123      4126
      4122      4120      4123      4124      4122      4120      4123      4125
      4122      4120      4123      4126      4124      4123      4126      4127
      4124      4123      4126      4128      4124      4123      4126      4129
      4125      4123      4126      4127      4125      4123      4126      4128
      4125      4123      4126      4129      4130      4132      4135      4136
      4130      4132      4135      4137      4130      4132      4135      4138
      4131      4130      4132      4133      4131      4130      4132      4134
      4131      4130      4132      4135      4132      4135      4138      4139
      4132      4135      4138      4140      4132      4135      4138      4141
      4133      4132      4135      4136      4133      4132      4135      4137
      4133      4132      4135      4138      4134      4132      4135      4136
      4134      4132      4135      4137      4134      4132      4135      4138
      4135      4138      4141      4142      4135      4138      4141      4143
      4135      4138      4141      4144      4136      4135      4138      4139
      4136      4135      4138      4140      4136      4135      4138      4141
      4137      4135      4138      4139      4137      4135      4138      4140
      4137      4135      4138      4141      4138      4141      4144      4145
      4138      4141      4144      4146      4138      4141      4144      4147
      4139      4138      4141      4142      4139      4138      4141      4143
      4139      4138      4141      4144      4140      4138      4141      4142
      4140      4138      4141      4143      4140      4138      4141      4144
      4141      4144      4147      4148      4141      4144      4147      4149
      4141      4144      4147      4150      4142      4141      4144      4145
      4142      4141      4144      4146      4142      4141      4144      4147
      4143      4141      4144      4145      4143      4141      4144      4146
      4143      4141      4144      4147      4144      4147      4150      4151
      4144      4147      4150      4152      4144      4147      4150      4153
      4145      4144      4147      4148      4145      4144      4147      4149
      4145      4144      4147      4150      4146      4144      4147      4148
      4146      4144      4147      4149      4146      4144      4147      4150
      4147      4150      4153      4154      4147      4150      4153      4155
      4147      4150      4153      4156      4148      4147      4150      4151
      4148      4147      4150      4152      4148      4147      4150      4153
      4149      4147      4150      4151      4149      4147      4150      4152
      4149      4147      4150      4153      4150      4153      4156      4157
      4150      4153      4156      4158      4150      4153      4156      4159
      4151      4150      4153      4154      4151      4150      4153      4155
      4151      4150      4153      4156      4152      4150      4153      4154
      4152      4150      4153      4155      4152      4150      4153      4156
      4153      4156      4159      4160      4153      4156      4159      4161
      4153      4156      4159      4162      4154      4153      4156      4157
      4154      4153      4156      4158      4154      4153      4156      4159
      4155      4153      4156      4157      4155      4153      4156      4158
      4155      4153      4156      4159      4156      4159      4162      4163
      4156      4159      4162      4164      4156      4159      4162      4165
      4157      4156      4159      4160      4157      4156      4159      4161
      4157      4156      4159      4162      4158      4156      4159      4160
      4158      4156      4159      4161      4158      4156      4159      4162
      4159      4162      4165      4166      4159      4162      4165      4167
      4159      4162      4165      4168      4160      4159      4162      4163
      4160      4159      4162      4164      4160      4159      4162      4165
      4161      4159      4162      4163      4161      4159      4162      4164
      4161      4159      4162      4165      4162      4165      4168      4169
      4162      4165      4168      4170      4162      4165      4168      4171
      4163      4162      4165      4166      4163      4162      4165      4167
      4163      4162      4165      4168      4164      4162      4165      4166
      4164      4162      4165      4167      4164      4162      4165      4168
      4165      4168      4171      4172      4165      4168      4171      4173
      4165      4168      4171      4174      4166      4165      4168      4169
      4166      4165      4168      4170      4166      4165      4168      4171
      4167      4165      4168      4169      4167      4165      4168      4170
      4167      4165      4168      4171      4168      4171      4174      4175
      4168      4171      4174      4176      4168      4171      4174      4177
      4169      4168      4171      4172      4169      4168      4171      4173
      4169      4168      4171      4174      4170      4168      4171      4172
      4170      4168      4171      4173      4170      4168      4171      4174
      4171      4174      4177      4178      4171      4174      4177      4179
      4171      4174      4177      4180      4172      4171      4174      4175
      4172      4171      4174      4176      4172      4171      4174      4177
      4173      4171      4174      4175      4173      4171      4174      4176
      4173      4171      4174      4177      4174      4177      4180      4181
      4174      4177      4180      4182      4174      4177      4180      4183
      4175      4174      4177      4178      4175      4174      4177      4179
      4175      4174      4177      4180      4176      4174      4177      4178
      4176      4174      4177      4179      4176      4174      4177      4180
      4177      4180      4183      4184      4177      4180      4183      4185
      4177      4180      4183      4186      4178      4177      4180      4181
      4178      4177      4180      4182      4178      4177      4180      4183
      4179      4177      4180      4181      4179      4177      4180      4182
      4179      4177      4180      4183      4180      4183      4186      4187
      4180      4183      4186      4188      4180      4183      4186      4189
      4181      4180      4183      4184      4181      4180      4183      4185
      4181      4180      4183      4186      4182      4180      4183      4184
      4182      4180      4183      4185      4182      4180      4183      4186
      4183      4186      4189      4190      4183      4186      4189      4191
      4183      4186      4189      4192      4184      4183      4186      4187
      4184      4183      4186      4188      4184      4183      4186      4189
      4185      4183      4186      4187      4185      4183      4186      4188
      4185      4183      4186      4189      4186      4189      4192      4193
      4186      4189      4192      4194      4186      4189      4192      4195
      4187      4186      4189      4190      4187      4186      4189      4191
      4187      4186      4189      4192      4188      4186      4189      4190
      4188      4186      4189      4191      4188      4186      4189      4192
      4189      4192      4195      4196      4189      4192      4195      4197
      4189      4192      4195      4198      4190      4189      4192      4193
      4190      4189      4192      4194      4190      4189      4192      4195
      4191      4189      4192      4193      4191      4189      4192      4194
      4191      4189      4192      4195      4193      4192      4195      4196
      4193      4192      4195      4197      4193      4192      4195      4198
      4194      4192      4195      4196      4194      4192      4195      4197
      4194      4192      4195      4198      4199      4203      4206      4207
      4199      4203      4206      4237      4199      4245      4242      4237
      4199      4245      4242      4243      4199      4245      4242      4244
      4200      4199      4201      4202      4200      4199      4203      4204
      4200      4199      4203      4205      4200      4199      4203      4206
      4200      4199      4245      4242      4200      4199      4245      4246
      4200      4199      4245      4247      4201      4199      4203      4204
      4201      4199      4203      4205      4201      4199      4203      4206
      4201      4199      4245      4242      4201      4199      4245      4246
      4201      4199      4245      4247      4202      4201      4199      4203
      4202      4201      4199      4245      4203      4199      4245      4242
      4203      4199      4245      4246      4203      4199      4245      4247
      4203      4206      4207      4208      4203      4206      4207      4209
      4203      4206      4237      4235      4203      4206      4237      4238
      4203      4206      4237      4242      4204      4203      4199      4245
      4204      4203      4206      4207      4204      4203      4206      4237
      4205      4203      4199      4245      4205      4203      4206      4207
      4205      4203      4206      4237      4206      4203      4199      4245
      4206      4207      4209      4210      4206      4207      4209      4211
      4206      4207      4209      4212      4206      4237      4235      4212
      4206      4237      4235      4232      4206      4237      4235      4236
      4206      4237      4238      4239      4206      4237      4238      4240
      4206      4237      4238      4241      4206      4237      4242      4243
      4206      4237      4242      4244      4206      4237      4242      4245
      4207      4206      4237      4235      4207      4206      4237      4238
      4207      4206      4237      4242      4207      4209      4212      4213
      4207      4209      4212      4214      4207      4209      4212      4235
      4208      4207      4206      4237      4208      4207      4209      4210
      4208      4207      4209      4211      4208      4207      4209      4212
      4209      4207      4206      4237      4209      4212      4214      4215
      4209      4212      4214      4216      4209      4212      4214      4224
      4209      4212      4235      4232      4209      4212      4235      4236
      4209      4212      4235      4237      4210      4209      4212      4213
      4210      4209      4212      4214      4210      4209      4212      4235
      4211      4209      4212      4213      4211      4209      4212      4214
      4211      4209      4212      4235      4212      4214      4216      4217
      4212      4214      4216      4218      4212      4214      4216      4219
      4212      4214      4224      4222      4212      4214      4224      4225
      4212      4214      4224      4229      4212      4235      4232      4229
      4212      4235      4232      4233      4212      4235      4232      4234
      4212      4235      4237      4238      4212      4235      4237      4242
      4213      4212      4214      4215      4213      4212      4214      4216
      4213      4212      4214      4224      4213      4212      4235      4232
      4213      4212      4235      4236      4213      4212      4235      4237
      4214      4212      4235      4232      4214      4212      4235      4236
      4214      4212      4235      4237      4214      4216      4219      4220
      4214      4216      4219      4221      4214      4216      4219      4222
      4214      4224      4222      4219      4214      4224      4222      4223
      4214      4224      4222      4248      4214      4224      4225      4226
      4214      4224      4225      4227      4214      4224      4225      4228
      4214      4224      4229      4230      4214      4224      4229      4231
      4214      4224      4229      4232      4215      4214      4212      4235
      4215      4214      4216      4217      4215      4214      4216      4218
      4215      4214      4216      4219      4215      4214      4224      4222
      4215      4214      4224      4225      4215      4214      4224      4229
      4216      4214      4212      4235      4216      4214      4224      4222
      4216      4214      4224      4225      4216      4214      4224      4229
      4216      4219      4222      4223      4216      4219      4222      4224
      4216      4219      4222      4248      4217      4216      4214      4224
      4217      4216      4219      4220      4217      4216      4219      4221
      4217      4216      4219      4222      4218      4216      4214      4224
      4218      4216      4219      4220      4218      4216      4219      4221
      4218      4216      4219      4222      4219      4216      4214      4224
      4219      4222      4224      4225      4219      4222      4224      4229
      4219      4222      4248      4249      4219      4222      4248      4250
      4219      4222      4248      4254      4220      4219      4222      4223
      4220      4219      4222      4224      4220      4219      4222      4248
      4221      4219      4222      4223      4221      4219      4222      4224
      4221      4219      4222      4248      4222      4224      4225      4226
      4222      4224      4225      4227      4222      4224      4225      4228
      4222      4224      4229      4230      4222      4224      4229      4231
      4222      4224      4229      4232      4222      4248      4250      4251
      4222      4248      4250      4252      4222      4248      4250      4253
      4222      4248      4254      4255      4222      4248      4254      4256
      4222      4248      4254      4257      4223      4222      4224      4225
      4223      4222      4224      4229      4223      4222      4248      4249
      4223      4222      4248      4250      4223      4222      4248      4254
      4224      4214      4212      4235      4224      4222      4248      4249
      4224      4222      4248      4250      4224      4222      4248      4254
      4224      4229      4232      4233      4224      4229      4232      4234
      4224      4229      4232      4235      4225      4224      4222      4248
      4225      4224      4229      4230      4225      4224      4229      4231
      4225      4224      4229      4232      4226      4225      4224      4229
      4227      4225      4224      4229      4228      4225      4224      4229
      4229      4224      4222      4248      4229      4232      4235      4236
      4229      4232      4235      4237      4230      4229      4232      4233
      4230      4229      4232      4234      4230      4229      4232      4235
      4231      4229      4232      4233      4231      4229      4232      4234
      4231      4229      4232      4235      4232      4235      4237      4238
      4232      4235      4237      4242      4233      4232      4235      4236
      4233      4232      4235      4237      4234      4232      4235      4236
      4234      4232      4235      4237      4235      4237      4238      4239
      4235      4237      4238      4240      4235      4237      4238      4241
      4235      4237      4242      4243      4235      4237      4242      4244
      4235      4237      4242      4245      4236      4235      4237      4238
      4236      4235      4237      4242      4237      4242      4245      4246
      4237      4242      4245      4247      4238      4237      4242      4243
      4238      4237      4242      4244      4238      4237      4242      4245
      4239      4238      4237      4242      4240      4238      4237      4242
      4241      4238      4237      4242      4243      4242      4245      4246
      4243      4242      4245      4247      4244      4242      4245      4246
      4244      4242      4245      4247      4248      4254      4257      4258
      4248      4254      4257      4259      4248      4254      4257      4260
      4249      4248      4250      4251      4249      4248      4250      4252
      4249      4248      4250      4253      4249      4248      4254      4255
      4249      4248      4254      4256      4249      4248      4254      4257
      4250      4248      4254      4255      4250      4248      4254      4256
      4250      4248      4254      4257      4251      4250      4248      4254
      4252      4250      4248      4254      4253      4250      4248      4254
      4254      4257      4260      4261      4254      4257      4260      4262
      4254      4257      4260      4263      4255      4254      4257      4258
      4255      4254      4257      4259      4255      4254      4257      4260
      4256      4254      4257      4258      4256      4254      4257      4259
      4256      4254      4257      4260      4257      4260      4263      4264
      4257      4260      4263      4265      4257      4260      4263      4269
      4258      4257      4260      4261      4258      4257      4260      4262
      4258      4257      4260      4263      4259      4257      4260      4261
      4259      4257      4260      4262      4259      4257      4260      4263
      4260      4263      4265      4266      4260      4263      4265      4267
      4260      4263      4265      4268      4260      4263      4269      4270
      4260      4263      4269      4271      4260      4263      4269      4272
      4261      4260      4263      4264      4261      4260      4263      4265
      4261      4260      4263      4269      4262      4260      4263      4264
      4262      4260      4263      4265      4262      4260      4263      4269
      4264      4263      4265      4266      4264      4263      4265      4267
      4264      4263      4265      4268      4264      4263      4269      4270
      4264      4263      4269      4271      4264      4263      4269      4272
      4265      4263      4269      4270      4265      4263      4269      4271
      4265      4263      4269      4272      4266      4265      4263      4269
      4267      4265      4263      4269      4268      4265      4263      4269
      4273      4274      4289      4290      4273      4274      4289      4291
      4273      4274      4289      4295      4274      4273      4277      4278
      4274      4273      4277      4279      4274      4273      4277      4280
      4274      4273      4281      4282      4274      4273      4281      4283
      4274      4273      4281      4284      4274      4273      4285      4286
      4274      4273      4285      4287      4274      4273      4285      4288
      4274      4289      4295      4292      4275      4274      4273      4277
      4275      4274      4273      4281      4275      4274      4273      4285
      4275      4274      4289      4290      4275      4274      4289      4291
      4275      4274      4289      4295      4276      4274      4273      4277
      4276      4274      4273      4281      4276      4274      4273      4285
      4276      4274      4289      4290      4276      4274      4289      4291
      4276      4274      4289      4295      4277      4273      4274      4289
      4277      4273      4281      4282      4277      4273      4281      4283
      4277      4273      4281      4284      4277      4273      4285      4286
      4277      4273      4285      4287      4277      4273      4285      4288
      4278      4277      4273      4281      4278      4277      4273      4285
      4279      4277      4273      4281      4279      4277      4273      4285
      4280      4277      4273      4281      4280      4277      4273      4285
      4281      4273      4274      4289      4281      4273      4285      4286
      4281      4273      4285      4287      4281      4273      4285      4288
      4282      4281      4273      4285      4283      4281      4273      4285
      4284      4281      4273      4285      4285      4273      4274      4289
      4289      4295      4292      4293      4289      4295      4292      4294
      4289      4295      4292      4296      4290      4289      4295      4292
      4291      4289      4295      4292      4292      4296      4297      4298
      4292      4296      4297      4299      4292      4296      4297      4300
      4293      4292      4296      4297      4294      4292      4296      4297
      4295      4292      4296      4297      4296      4297      4300      4301
      4296      4297      4300      4302      4296      4297      4300      4308
      4297      4300      4302      4303      4297      4300      4308      4309
      4297      4300      4308      4310      4297      4300      4308      4311
      4298      4297      4300      4301      4298      4297      4300      4302
      4298      4297      4300      4308      4299      4297      4300      4301
      4299      4297      4300      4302      4299      4297      4300      4308
      4300      4302      4303      4304      4300      4302      4303      4305
      4300      4308      4311      4312      4301      4300      4302      4303
      4301      4300      4308      4309      4301      4300      4308      4310
      4301      4300      4308      4311      4302      4300      4308      4309
      4302      4300      4308      4310      4302      4300      4308      4311
      4302      4303      4305      4306      4302      4303      4305      4307
      4302      4303      4305      4317      4303      4302      4300      4308
      4303      4305      4317      4318      4303      4305      4317      4319
      4303      4305      4317      4320      4304      4303      4305      4306
      4304      4303      4305      4307      4304      4303      4305      4317
      4305      4317      4320      4321      4305      4317      4320      4322
      4305      4317      4320      4323      4306      4305      4317      4318
      4306      4305      4317      4319      4306      4305      4317      4320
      4307      4305      4317      4318      4307      4305      4317      4319
      4307      4305      4317      4320      4308      4311      4312      4313
      4308      4311      4312      4314      4309      4308      4311      4312
      4310      4308      4311      4312      4311      4312      4314      4315
      4311      4312      4314      4316      4311      4312      4314      4364
      4312      4314      4364      4365      4312      4314      4364      4366
      4312      4314      4364      4367      4313      4312      4314      4315
      4313      4312      4314      4316      4313      4312      4314      4364
      4314      4364      4367      4368      4314      4364      4367      4369
      4314      4364      4367      4370      4315      4314      4364      4365
      4315      4314      4364      4366      4315      4314      4364      4367
      4316      4314      4364      4365      4316      4314      4364      4366
      4316      4314      4364      4367      4317      4320      4323      4324
      4317      4320      4323      4325      4317      4320      4323      4326
      4318      4317      4320      4321      4318      4317      4320      4322
      4318      4317      4320      4323      4319      4317      4320      4321
      4319      4317      4320      4322      4319      4317      4320      4323
      4320      4323      4326      4327      4320      4323      4326      4328
      4320      4323      4326      4329      4321      4320      4323      4324
      4321      4320      4323      4325      4321      4320      4323      4326
      4322      4320      4323      4324      4322      4320      4323      4325
      4322      4320      4323      4326      4323      4326      4329      4330
      4323      4326      4329      4331      4323      4326      4329      4332
      4324      4323      4326      4327      4324      4323      4326      4328
      4324      4323      4326      4329      4325      4323      4326      4327
      4325      4323      4326      4328      4325      4323      4326      4329
      4326      4329      4332      4333      4326      4329      4332      4334
      4326      4329      4332      4335      4327      4326      4329      4330
      4327      4326      4329      4331      4327      4326      4329      4332
      4328      4326      4329      4330      4328      4326      4329      4331
      4328      4326      4329      4332      4329      4332      4335      4336
      4329      4332      4335      4337      4330      4329      4332      4333
      4330      4329      4332      4334      4330      4329      4332      4335
      4331      4329      4332      4333      4331      4329      4332      4334
      4331      4329      4332      4335      4332      4335      4337      4338
      4332      4335      4337      4339      4333      4332      4335      4336
      4333      4332      4335      4337      4334      4332      4335      4336
      4334      4332      4335      4337      4335      4337      4339      4340
      4335      4337      4339      4341      4335      4337      4339      4342
      4336      4335      4337      4338      4336      4335      4337      4339
      4337      4339      4342      4343      4337      4339      4342      4344
      4337      4339      4342      4345      4338      4337      4339      4340
      4338      4337      4339      4341      4338      4337      4339      4342
      4339      4342      4345      4346      4339      4342      4345      4347
      4339      4342      4345      4348      4340      4339      4342      4343
      4340      4339      4342      4344      4340      4339      4342      4345
      4341      4339      4342      4343      4341      4339      4342      4344
      4341      4339      4342      4345      4342      4345      4348      4349
      4342      4345      4348      4350      4342      4345      4348      4351
      4343      4342      4345      4346      4343      4342      4345      4347
      4343      4342      4345      4348      4344      4342      4345      4346
      4344      4342      4345      4347      4344      4342      4345      4348
      4345      4348      4351      4352      4345      4348      4351      4353
      4345      4348      4351      4354      4346      4345      4348      4349
      4346      4345      4348      4350      4346      4345      4348      4351
      4347      4345      4348      4349      4347      4345      4348      4350
      4347      4345      4348      4351      4348      4351      4354      4355
      4348      4351      4354      4356      4348      4351      4354      4357
      4349      4348      4351      4352      4349      4348      4351      4353
      4349      4348      4351      4354      4350      4348      4351      4352
      4350      4348      4351      4353      4350      4348      4351      4354
      4351      4354      4357      4358      4351      4354      4357      4359
      4351      4354      4357      4360      4352      4351      4354      4355
      4352      4351      4354      4356      4352      4351      4354      4357
      4353      4351      4354      4355      4353      4351      4354      4356
      4353      4351      4354      4357      4354      4357      4360      4361
      4354      4357      4360      4362      4354      4357      4360      4363
      4355      4354      4357      4358      4355      4354      4357      4359
      4355      4354      4357      4360      4356      4354      4357      4358
      4356      4354      4357      4359      4356      4354      4357      4360
      4358      4357      4360      4361      4358      4357      4360      4362
      4358      4357      4360      4363      4359      4357      4360      4361
      4359      4357      4360      4362      4359      4357      4360      4363
      4364      4367      4370      4371      4364      4367      4370      4372
      4364      4367      4370      4373      4365      4364      4367      4368
      4365      4364      4367      4369      4365      4364      4367      4370
      4366      4364      4367      4368      4366      4364      4367      4369
      4366      4364      4367      4370      4367      4370      4373      4374
      4367      4370      4373      4375      4367      4370      4373      4376
      4368      4367      4370      4371      4368      4367      4370      4372
      4368      4367      4370      4373      4369      4367      4370      4371
      4369      4367      4370      4372      4369      4367      4370      4373
      4370      4373      4376      4377      4370      4373      4376      4378
      4370      4373      4376      4379      4371      4370      4373      4374
      4371      4370      4373      4375      4371      4370      4373      4376
      4372      4370      4373      4374      4372      4370      4373      4375
      4372      4370      4373      4376      4373      4376      4379      4380
      4373      4376      4379      4381      4373      4376      4379      4382
      4374      4373      4376      4377      4374      4373      4376      4378
      4374      4373      4376      4379      4375      4373      4376      4377
      4375      4373      4376      4378      4375      4373      4376      4379
      4376      4379      4382      4383      4376      4379      4382      4384
      4377      4376      4379      4380      4377      4376      4379      4381
      4377      4376      4379      4382      4378      4376      4379      4380
      4378      4376      4379      4381      4378      4376      4379      4382
      4379      4382      4384      4385      4379      4382      4384      4386
      4380      4379      4382      4383      4380      4379      4382      4384
      4381      4379      4382      4383      4381      4379      4382      4384
      4382      4384      4386      4387      4382      4384      4386      4388
      4382      4384      4386      4389      4383      4382      4384      4385
      4383      4382      4384      4386      4384      4386      4389      4390
      4384      4386      4389      4391      4384      4386      4389      4392
      4385      4384      4386      4387      4385      4384      4386      4388
      4385      4384      4386      4389      4386      4389      4392      4393
      4386      4389      4392      4394      4386      4389      4392      4395
      4387      4386      4389      4390      4387      4386      4389      4391
      4387      4386      4389      4392      4388      4386      4389      4390
      4388      4386      4389      4391      4388      4386      4389      4392
      4389      4392      4395      4396      4389      4392      4395      4397
      4389      4392      4395      4398      4390      4389      4392      4393
      4390      4389      4392      4394      4390      4389      4392      4395
      4391      4389      4392      4393      4391      4389      4392      4394
      4391      4389      4392      4395      4392      4395      4398      4399
      4392      4395      4398      4400      4392      4395      4398      4401
      4393      4392      4395      4396      4393      4392      4395      4397
      4393      4392      4395      4398      4394      4392      4395      4396
      4394      4392      4395      4397      4394      4392      4395      4398
      4395      4398      4401      4402      4395      4398      4401      4403
      4395      4398      4401      4404      4396      4395      4398      4399
      4396      4395      4398      4400      4396      4395      4398      4401
      4397      4395      4398      4399      4397      4395      4398      4400
      4397      4395      4398      4401      4398      4401      4404      4405
      4398      4401      4404      4406      4398      4401      4404      4407
      4399      4398      4401      4402      4399      4398      4401      4403
      4399      4398      4401      4404      4400      4398      4401      4402
      4400      4398      4401      4403      4400      4398      4401      4404
      4401      4404      4407      4408      4401      4404      4407      4409
      4401      4404      4407      4410      4402      4401      4404      4405
      4402      4401      4404      4406      4402      4401      4404      4407
      4403      4401      4404      4405      4403      4401      4404      4406
      4403      4401      4404      4407      4405      4404      4407      4408
      4405      4404      4407      4409      4405      4404      4407      4410
      4406      4404      4407      4408      4406      4404      4407      4409
      4406      4404      4407      4410      4411      4415      4418      4419
      4411      4415      4418      4449      4411      4457      4454      4449
      4411      4457      4454      4455      4411      4457      4454      4456
      4412      4411      4413      4414      4412      4411      4415      4416
      4412      4411      4415      4417      4412      4411      4415      4418
      4412      4411      4457      4454      4412      4411      4457      4458
      4412      4411      4457      4459      4413      4411      4415      4416
      4413      4411      4415      4417      4413      4411      4415      4418
      4413      4411      4457      4454      4413      4411      4457      4458
      4413      4411      4457      4459      4414      4413      4411      4415
      4414      4413      4411      4457      4415      4411      4457      4454
      4415      4411      4457      4458      4415      4411      4457      4459
      4415      4418      4419      4420      4415      4418      4419      4421
      4415      4418      4449      4447      4415      4418      4449      4450
      4415      4418      4449      4454      4416      4415      4411      4457
      4416      4415      4418      4419      4416      4415      4418      4449
      4417      4415      4411      4457      4417      4415      4418      4419
      4417      4415      4418      4449      4418      4415      4411      4457
      4418      4419      4421      4422      4418      4419      4421      4423
      4418      4419      4421      4424      4418      4449      4447      4424
      4418      4449      4447      4444      4418      4449      4447      4448
      4418      4449      4450      4451      4418      4449      4450      4452
      4418      4449      4450      4453      4418      4449      4454      4455
      4418      4449      4454      4456      4418      4449      4454      4457
      4419      4418      4449      4447      4419      4418      4449      4450
      4419      4418      4449      4454      4419      4421      4424      4425
      4419      4421      4424      4426      4419      4421      4424      4447
      4420      4419      4418      4449      4420      4419      4421      4422
      4420      4419      4421      4423      4420      4419      4421      4424
      4421      4419      4418      4449      4421      4424      4426      4427
      4421      4424      4426      4428      4421      4424      4426      4436
      4421      4424      4447      4444      4421      4424      4447      4448
      4421      4424      4447      4449      4422      4421      4424      4425
      4422      4421      4424      4426      4422      4421      4424      4447
      4423      4421      4424      4425      4423      4421      4424      4426
      4423      4421      4424      4447      4424      4426      4428      4429
      4424      4426      4428      4430      4424      4426      4428      4431
      4424      4426      4436      4434      4424      4426      4436      4437
      4424      4426      4436      4441      4424      4447      4444      4441
      4424      4447      4444      4445      4424      4447      4444      4446
      4424      4447      4449      4450      4424      4447      4449      4454
      4425      4424      4426      4427      4425      4424      4426      4428
      4425      4424      4426      4436      4425      4424      4447      4444
      4425      4424      4447      4448      4425      4424      4447      4449
      4426      4424      4447      4444      4426      4424      4447      4448
      4426      4424      4447      4449      4426      4428      4431      4432
      4426      4428      4431      4433      4426      4428      4431      4434
      4426      4436      4434      4431      4426      4436      4434      4435
      4426      4436      4434      4460      4426      4436      4437      4438
      4426      4436      4437      4439      4426      4436      4437      4440
      4426      4436      4441      4442      4426      4436      4441      4443
      4426      4436      4441      4444      4427      4426      4424      4447
      4427      4426      4428      4429      4427      4426      4428      4430
      4427      4426      4428      4431      4427      4426      4436      4434
      4427      4426      4436      4437      4427      4426      4436      4441
      4428      4426      4424      4447      4428      4426      4436      4434
      4428      4426      4436      4437      4428      4426      4436      4441
      4428      4431      4434      4435      4428      4431      4434      4436
      4428      4431      4434      4460      4429      4428      4426      4436
      4429      4428      4431      4432      4429      4428      4431      4433
      4429      4428      4431      4434      4430      4428      4426      4436
      4430      4428      4431      4432      4430      4428      4431      4433
      4430      4428      4431      4434      4431      4428      4426      4436
      4431      4434      4436      4437      4431      4434      4436      4441
      4431      4434      4460      4461      4431      4434      4460      4462
      4431      4434      4460      4466      4432      4431      4434      4435
      4432      4431      4434      4436      4432      4431      4434      4460
      4433      4431      4434      4435      4433      4431      4434      4436
      4433      4431      4434      4460      4434      4436      4437      4438
      4434      4436      4437      4439      4434      4436      4437      4440
      4434      4436      4441      4442      4434      4436      4441      4443
      4434      4436      4441      4444      4434      4460      4462      4463
      4434      4460      4462      4464      4434      4460      4462      4465
      4434      4460      4466      4467      4434      4460      4466      4468
      4434      4460      4466      4469      4435      4434      4436      4437
      4435      4434      4436      4441      4435      4434      4460      4461
      4435      4434      4460      4462      4435      4434      4460      4466
      4436      4426      4424      4447      4436      4434      4460      4461
      4436      4434      4460      4462      4436      4434      4460      4466
      4436      4441      4444      4445      4436      4441      4444      4446
      4436      4441      4444      4447      4437      4436      4434      4460
      4437      4436      4441      4442      4437      4436      4441      4443
      4437      4436      4441      4444      4438      4437      4436      4441
      4439      4437      4436      4441      4440      4437      4436      4441
      4441      4436      4434      4460      4441      4444      4447      4448
      4441      4444      4447      4449      4442      4441      4444      4445
      4442      4441      4444      4446      4442      4441      4444      4447
      4443      4441      4444      4445      4443      4441      4444      4446
      4443      4441      4444      4447      4444      4447      4449      4450
      4444      4447      4449      4454      4445      4444      4447      4448
      4445      4444      4447      4449      4446      4444      4447      4448
      4446      4444      4447      4449      4447      4449      4450      4451
      4447      4449      4450      4452      4447      4449      4450      4453
      4447      4449      4454      4455      4447      4449      4454      4456
      4447      4449      4454      4457      4448      4447      4449      4450
      4448      4447      4449      4454      4449      4454      4457      4458
      4449      4454      4457      4459      4450      4449      4454      4455
      4450      4449      4454      4456      4450      4449      4454      4457
      4451      4450      4449      4454      4452      4450      4449      4454
      4453      4450      4449      4454      4455      4454      4457      4458
      4455      4454      4457      4459      4456      4454      4457      4458
      4456      4454      4457      4459      4460      4466      4469      4470
      4460      4466      4469      4471      4460      4466      4469      4472
      4461      4460      4462      4463      4461      4460      4462      4464
      4461      4460      4462      4465      4461      4460      4466      4467
      4461      4460      4466      4468      4461      4460      4466      4469
      4462      4460      4466      4467      4462      4460      4466      4468
      4462      4460      4466      4469      4463      4462      4460      4466
      4464      4462      4460      4466      4465      4462      4460      4466
      4466      4469      4472      4473      4466      4469      4472      4474
      4466      4469      4472      4475      4467      4466      4469      4470
      4467      4466      4469      4471      4467      4466      4469      4472
      4468      4466      4469      4470      4468      4466      4469      4471
      4468      4466      4469      4472      4469      4472      4475      4476
      4469      4472      4475      4477      4469      4472      4475      4481
      4470      4469      4472      4473      4470      4469      4472      4474
      4470      4469      4472      4475      4471      4469      4472      4473
      4471      4469      4472      4474      4471      4469      4472      4475
      4472      4475      4477      4478      4472      4475      4477      4479
      4472      4475      4477      4480      4472      4475      4481      4482
      4472      4475      4481      4483      4472      4475      4481      4484
      4473      4472      4475      4476      4473      4472      4475      4477
      4473      4472      4475      4481      4474      4472      4475      4476
      4474      4472      4475      4477      4474      4472      4475      4481
      4476      4475      4477      4478      4476      4475      4477      4479
      4476      4475      4477      4480      4476      4475      4481      4482
      4476      4475      4481      4483      4476      4475      4481      4484
      4477      4475      4481      4482      4477      4475      4481      4483
      4477      4475      4481      4484      4478      4477      4475      4481
      4479      4477      4475      4481      4480      4477      4475      4481
      4485      4486      4501      4502      4485      4486      4501      4503
      4485      4486      4501      4507      4486      4485      4489      4490
      4486      4485      4489      4491      4486      4485      4489      4492
      4486      4485      4493      4494      4486      4485      4493      4495
      4486      4485      4493      4496      4486      4485      4497      4498
      4486      4485      4497      4499      4486      4485      4497      4500
      4486      4501      4507      4504      4487      4486      4485      4489
      4487      4486      4485      4493      4487      4486      4485      4497
      4487      4486      4501      4502      4487      4486      4501      4503
      4487      4486      4501      4507      4488      4486      4485      4489
      4488      4486      4485      4493      4488      4486      4485      4497
      4488      4486      4501      4502      4488      4486      4501      4503
      4488      4486      4501      4507      4489      4485      4486      4501
      4489      4485      4493      4494      4489      4485      4493      4495
      4489      4485      4493      4496      4489      4485      4497      4498
      4489      4485      4497      4499      4489      4485      4497      4500
      4490      4489      4485      4493      4490      4489      4485      4497
      4491      4489      4485      4493      4491      4489      4485      4497
      4492      4489      4485      4493      4492      4489      4485      4497
      4493      4485      4486      4501      4493      4485      4497      4498
      4493      4485      4497      4499      4493      4485      4497      4500
      4494      4493      4485      4497      4495      4493      4485      4497
      4496      4493      4485      4497      4497      4485      4486      4501
      4501      4507      4504      4505      4501      4507      4504      4506
      4501      4507      4504      4508      4502      4501      4507      4504
      4503      4501      4507      4504      4504      4508      4509      4510
      4504      4508      4509      4511      4504      4508      4509      4512
      4505      4504      4508      4509      4506      4504      4508      4509
      4507      4504      4508      4509      4508      4509      4512      4513
      4508      4509      4512      4514      4508      4509      4512      4520
      4509      4512      4514      4515      4509      4512      4520      4521
      4509      4512      4520      4522      4509      4512      4520      4523
      4510      4509      4512      4513      4510      4509      4512      4514
      4510      4509      4512      4520      4511      4509      4512      4513
      4511      4509      4512      4514      4511      4509      4512      4520
      4512      4514      4515      4516      4512      4514      4515      4517
      4512      4520      4523      4524      4513      4512      4514      4515
      4513      4512      4520      4521      4513      4512      4520      4522
      4513      4512      4520      4523      4514      4512      4520      4521
      4514      4512      4520      4522      4514      4512      4520      4523
      4514      4515      4517      4518      4514      4515      4517      4519
      4514      4515      4517      4529      4515      4514      4512      4520
      4515      4517      4529      4530      4515      4517      4529      4531
      4515      4517      4529      4532      4516      4515      4517      4518
      4516      4515      4517      4519      4516      4515      4517      4529
      4517      4529      4532      4533      4517      4529      4532      4534
      4517      4529      4532      4535      4518      4517      4529      4530
      4518      4517      4529      4531      4518      4517      4529      4532
      4519      4517      4529      4530      4519      4517      4529      4531
      4519      4517      4529      4532      4520      4523      4524      4525
      4520      4523      4524      4526      4521      4520      4523      4524
      4522      4520      4523      4524      4523      4524      4526      4527
      4523      4524      4526      4528      4523      4524      4526      4576
      4524      4526      4576      4577      4524      4526      4576      4578
      4524      4526      4576      4579      4525      4524      4526      4527
      4525      4524      4526      4528      4525      4524      4526      4576
      4526      4576      4579      4580      4526      4576      4579      4581
      4526      4576      4579      4582      4527      4526      4576      4577
      4527      4526      4576      4578      4527      4526      4576      4579
      4528      4526      4576      4577      4528      4526      4576      4578
      4528      4526      4576      4579      4529      4532      4535      4536
      4529      4532      4535      4537      4529      4532      4535      4538
      4530      4529      4532      4533      4530      4529      4532      4534
      4530      4529      4532      4535      4531      4529      4532      4533
      4531      4529      4532      4534      4531      4529      4532      4535
      4532      4535      4538      4539      4532      4535      4538      4540
      4532      4535      4538      4541      4533      4532      4535      4536
      4533      4532      4535      4537      4533      4532      4535      4538
      4534      4532      4535      4536      4534      4532      4535      4537
      4534      4532      4535      4538      4535      4538      4541      4542
      4535      4538      4541      4543      4535      4538      4541      4544
      4536      4535      4538      4539      4536      4535      4538      4540
      4536      4535      4538      4541      4537      4535      4538      4539
      4537      4535      4538      4540      4537      4535      4538      4541
      4538      4541      4544      4545      4538      4541      4544      4546
      4538      4541      4544      4547      4539      4538      4541      4542
      4539      4538      4541      4543      4539      4538      4541      4544
      4540      4538      4541      4542      4540      4538      4541      4543
      4540      4538      4541      4544      4541      4544      4547      4548
      4541      4544      4547      4549      4542      4541      4544      4545
      4542      4541      4544      4546      4542      4541      4544      4547
      4543      4541      4544      4545      4543      4541      4544      4546
      4543      4541      4544      4547      4544      4547      4549      4550
      4544      4547      4549      4551      4545      4544      4547      4548
      4545      4544      4547      4549      4546      4544      4547      4548
      4546      4544      4547      4549      4547      4549      4551      4552
      4547      4549      4551      4553      4547      4549      4551      4554
      4548      4547      4549      4550      4548      4547      4549      4551
      4549      4551      4554      4555      4549      4551      4554      4556
      4549      4551      4554      4557      4550      4549      4551      4552
      4550      4549      4551      4553      4550      4549      4551      4554
      4551      4554      4557      4558      4551      4554      4557      4559
      4551      4554      4557      4560      4552      4551      4554      4555
      4552      4551      4554      4556      4552      4551      4554      4557
      4553      4551      4554      4555      4553      4551      4554      4556
      4553      4551      4554      4557      4554      4557      4560      4561
      4554      4557      4560      4562      4554      4557      4560      4563
      4555      4554      4557      4558      4555      4554      4557      4559
      4555      4554      4557      4560      4556      4554      4557      4558
      4556      4554      4557      4559      4556      4554      4557      4560
      4557      4560      4563      4564      4557      4560      4563      4565
      4557      4560      4563      4566      4558      4557      4560      4561
      4558      4557      4560      4562      4558      4557      4560      4563
      4559      4557      4560      4561      4559      4557      4560      4562
      4559      4557      4560      4563      4560      4563      4566      4567
      4560      4563      4566      4568      4560      4563      4566      4569
      4561      4560      4563      4564      4561      4560      4563      4565
      4561      4560      4563      4566      4562      4560      4563      4564
      4562      4560      4563      4565      4562      4560      4563      4566
      4563      4566      4569      4570      4563      4566      4569      4571
      4563      4566      4569      4572      4564      4563      4566      4567
      4564      4563      4566      4568      4564      4563      4566      4569
      4565      4563      4566      4567      4565      4563      4566      4568
      4565      4563      4566      4569      4566      4569      4572      4573
      4566      4569      4572      4574      4566      4569      4572      4575
      4567      4566      4569      4570      4567      4566      4569      4571
      4567      4566      4569      4572      4568      4566      4569      4570
      4568      4566      4569      4571      4568      4566      4569      4572
      4570      4569      4572      4573      4570      4569      4572      4574
      4570      4569      4572      4575      4571      4569      4572      4573
      4571      4569      4572      4574      4571      4569      4572      4575
      4576      4579      4582      4583      4576      4579      4582      4584
      4576      4579      4582      4585      4577      4576      4579      4580
      4577      4576      4579      4581      4577      4576      4579      4582
      4578      4576      4579      4580      4578      4576      4579      4581
      4578      4576      4579      4582      4579      4582      4585      4586
      4579      4582      4585      4587      4579      4582      4585      4588
      4580      4579      4582      4583      4580      4579      4582      4584
      4580      4579      4582      4585      4581      4579      4582      4583
      4581      4579      4582      4584      4581      4579      4582      4585
      4582      4585      4588      4589      4582      4585      4588      4590
      4582      4585      4588      4591      4583      4582      4585      4586
      4583      4582      4585      4587      4583      4582      4585      4588
      4584      4582      4585      4586      4584      4582      4585      4587
      4584      4582      4585      4588      4585      4588      4591      4592
      4585      4588      4591      4593      4585      4588      4591      4594
      4586      4585      4588      4589      4586      4585      4588      4590
      4586      4585      4588      4591      4587      4585      4588      4589
      4587      4585      4588      4590      4587      4585      4588      4591
      4588      4591      4594      4595      4588      4591      4594      4596
      4589      4588      4591      4592      4589      4588      4591      4593
      4589      4588      4591      4594      4590      4588      4591      4592
      4590      4588      4591      4593      4590      4588      4591      4594
      4591      4594      4596      4597      4591      4594      4596      4598
      4592      4591      4594      4595      4592      4591      4594      4596
      4593      4591      4594      4595      4593      4591      4594      4596
      4594      4596      4598      4599      4594      4596      4598      4600
      4594      4596      4598      4601      4595      4594      4596      4597
      4595      4594      4596      4598      4596      4598      4601      4602
      4596      4598      4601      4603      4596      4598      4601      4604
      4597      4596      4598      4599      4597      4596      4598      4600
      4597      4596      4598      4601      4598      4601      4604      4605
      4598      4601      4604      4606      4598      4601      4604      4607
      4599      4598      4601      4602      4599      4598      4601      4603
      4599      4598      4601      4604      4600      4598      4601      4602
      4600      4598      4601      4603      4600      4598      4601      4604
      4601      4604      4607      4608      4601      4604      4607      4609
      4601      4604      4607      4610      4602      4601      4604      4605
      4602      4601      4604      4606      4602      4601      4604      4607
      4603      4601      4604      4605      4603      4601      4604      4606
      4603      4601      4604      4607      4604      4607      4610      4611
      4604      4607      4610      4612      4604      4607      4610      4613
      4605      4604      4607      4608      4605      4604      4607      4609
      4605      4604      4607      4610      4606      4604      4607      4608
      4606      4604      4607      4609      4606      4604      4607      4610
      4607      4610      4613      4614      4607      4610      4613      4615
      4607      4610      4613      4616      4608      4607      4610      4611
      4608      4607      4610      4612      4608      4607      4610      4613
      4609      4607      4610      4611      4609      4607      4610      4612
      4609      4607      4610      4613      4610      4613      4616      4617
      4610      4613      4616      4618      4610      4613      4616      4619
      4611      4610      4613      4614      4611      4610      4613      4615
      4611      4610      4613      4616      4612      4610      4613      4614
      4612      4610      4613      4615      4612      4610      4613      4616
      4613      4616      4619      4620      4613      4616      4619      4621
      4613      4616      4619      4622      4614      4613      4616      4617
      4614      4613      4616      4618      4614      4613      4616      4619
      4615      4613      4616      4617      4615      4613      4616      4618
      4615      4613      4616      4619      4617      4616      4619      4620
      4617      4616      4619      4621      4617      4616      4619      4622
      4618      4616      4619      4620      4618      4616      4619      4621
      4618      4616      4619      4622      4623      4624      4639      4640
      4623      4624      4639      4641      4623      4624      4639      4645
      4624      4623      4627      4628      4624      4623      4627      4629
      4624      4623      4627      4630      4624      4623      4631      4632
      4624      4623      4631      4633      4624      4623      4631      4634
      4624      4623      4635      4636      4624      4623      4635      4637
      4624      4623      4635      4638      4624      4639      4645      4642
      4625      4624      4623      4627      4625      4624      4623      4631
      4625      4624      4623      4635      4625      4624      4639      4640
      4625      4624      4639      4641      4625      4624      4639      4645
      4626      4624      4623      4627      4626      4624      4623      4631
      4626      4624      4623      4635      4626      4624      4639      4640
      4626      4624      4639      4641      4626      4624      4639      4645
      4627      4623      4624      4639      4627      4623      4631      4632
      4627      4623      4631      4633      4627      4623      4631      4634
      4627      4623      4635      4636      4627      4623      4635      4637
      4627      4623      4635      4638      4628      4627      4623      4631
      4628      4627      4623      4635      4629      4627      4623      4631
      4629      4627      4623      4635      4630      4627      4623      4631
      4630      4627      4623      4635      4631      4623      4624      4639
      4631      4623      4635      4636      4631      4623      4635      4637
      4631      4623      4635      4638      4632      4631      4623      4635
      4633      4631      4623      4635      4634      4631      4623      4635
      4635      4623      4624      4639      4639      4645      4642      4643
      4639      4645      4642      4644      4639      4645      4642      4646
      4640      4639      4645      4642      4641      4639      4645      4642
      4642      4646      4647      4648      4642      4646      4647      4649
      4642      4646      4647      4650      4643      4642      4646      4647
      4644      4642      4646      4647      4645      4642      4646      4647
      4646      4647      4650      4651      4646      4647      4650      4652
      4646      4647      4650      4658      4647      4650      4652      4653
      4647      4650      4658      4659      4647      4650      4658      4660
      4647      4650      4658      4661      4648      4647      4650      4651
      4648      4647      4650      4652      4648      4647      4650      4658
      4649      4647      4650      4651      4649      4647      4650      4652
      4649      4647      4650      4658      4650      4652      4653      4654
      4650      4652      4653      4655      4650      4658      4661      4662
      4651      4650      4652      4653      4651      4650      4658      4659
      4651      4650      4658      4660      4651      4650      4658      4661
      4652      4650      4658      4659      4652      4650      4658      4660
      4652      4650      4658      4661      4652      4653      4655      4656
      4652      4653      4655      4657      4652      4653      4655      4667
      4653      4652      4650      4658      4653      4655      4667      4668
      4653      4655      4667      4669      4653      4655      4667      4670
      4654      4653      4655      4656      4654      4653      4655      4657
      4654      4653      4655      4667      4655      4667      4670      4671
      4655      4667      4670      4672      4655      4667      4670      4673
      4656      4655      4667      4668      4656      4655      4667      4669
      4656      4655      4667      4670      4657      4655      4667      4668
      4657      4655      4667      4669      4657      4655      4667      4670
      4658      4661      4662      4663      4658      4661      4662      4664
      4659      4658      4661      4662      4660      4658      4661      4662
      4661      4662      4664      4665      4661      4662      4664      4666
      4661      4662      4664      4714      4662      4664      4714      4715
      4662      4664      4714      4716      4662      4664      4714      4717
      4663      4662      4664      4665      4663      4662      4664      4666
      4663      4662      4664      4714      4664      4714      4717      4718
      4664      4714      4717      4719      4664      4714      4717      4720
      4665      4664      4714      4715      4665      4664      4714      4716
      4665      4664      4714      4717      4666      4664      4714      4715
      4666      4664      4714      4716      4666      4664      4714      4717
      4667      4670      4673      4674      4667      4670      4673      4675
      4667      4670      4673      4676      4668      4667      4670      4671
      4668      4667      4670      4672      4668      4667      4670      4673
      4669      4667      4670      4671      4669      4667      4670      4672
      4669      4667      4670      4673      4670      4673      4676      4677
      4670      4673      4676      4678      4670      4673      4676      4679
      4671      4670      4673      4674      4671      4670      4673      4675
      4671      4670      4673      4676      4672      4670      4673      4674
      4672      4670      4673      4675      4672      4670      4673      4676
      4673      4676      4679      4680      4673      4676      4679      4681
      4673      4676      4679      4682      4674      4673      4676      4677
      4674      4673      4676      4678      4674      4673      4676      4679
      4675      4673      4676      4677      4675      4673      4676      4678
      4675      4673      4676      4679      4676      4679      4682      4683
      4676      4679      4682      4684      4676      4679      4682      4685
      4677      4676      4679      4680      4677      4676      4679      4681
      4677      4676      4679      4682      4678      4676      4679      4680
      4678      4676      4679      4681      4678      4676      4679      4682
      4679      4682      4685      4686      4679      4682      4685      4687
      4680      4679      4682      4683      4680      4679      4682      4684
      4680      4679      4682      4685      4681      4679      4682      4683
      4681      4679      4682      4684      4681      4679      4682      4685
      4682      4685      4687      4688      4682      4685      4687      4689
      4683      4682      4685      4686      4683      4682      4685      4687
      4684      4682      4685      4686      4684      4682      4685      4687
      4685      4687      4689      4690      4685      4687      4689      4691
      4685      4687      4689      4692      4686      4685      4687      4688
      4686      4685      4687      4689      4687      4689      4692      4693
      4687      4689      4692      4694      4687      4689      4692      4695
      4688      4687      4689      4690      4688      4687      4689      4691
      4688      4687      4689      4692      4689      4692      4695      4696
      4689      4692      4695      4697      4689      4692      4695      4698
      4690      4689      4692      4693      4690      4689      4692      4694
      4690      4689      4692      4695      4691      4689      4692      4693
      4691      4689      4692      4694      4691      4689      4692      4695
      4692      4695      4698      4699      4692      4695      4698      4700
      4692      4695      4698      4701      4693      4692      4695      4696
      4693      4692      4695      4697      4693      4692      4695      4698
      4694      4692      4695      4696      4694      4692      4695      4697
      4694      4692      4695      4698      4695      4698      4701      4702
      4695      4698      4701      4703      4695      4698      4701      4704
      4696      4695      4698      4699      4696      4695      4698      4700
      4696      4695      4698      4701      4697      4695      4698      4699
      4697      4695      4698      4700      4697      4695      4698      4701
      4698      4701      4704      4705      4698      4701      4704      4706
      4698      4701      4704      4707      4699      4698      4701      4702
      4699      4698      4701      4703      4699      4698      4701      4704
      4700      4698      4701      4702      4700      4698      4701      4703
      4700      4698      4701      4704      4701      4704      4707      4708
      4701      4704      4707      4709      4701      4704      4707      4710
      4702      4701      4704      4705      4702      4701      4704      4706
      4702      4701      4704      4707      4703      4701      4704      4705
      4703      4701      4704      4706      4703      4701      4704      4707
      4704      4707      4710      4711      4704      4707      4710      4712
      4704      4707      4710      4713      4705      4704      4707      4708
      4705      4704      4707      4709      4705      4704      4707      4710
      4706      4704      4707      4708      4706      4704      4707      4709
      4706      4704      4707      4710      4708      4707      4710      4711
      4708      4707      4710      4712      4708      4707      4710      4713
      4709      4707      4710      4711      4709      4707      4710      4712
      4709      4707      4710      4713      4714      4717      4720      4721
      4714      4717      4720      4722      4714      4717      4720      4723
      4715      4714      4717      4718      4715      4714      4717      4719
      4715      4714      4717      4720      4716      4714      4717      4718
      4716      4714      4717      4719      4716      4714      4717      4720
      4717      4720      4723      4724      4717      4720      4723      4725
      4717      4720      4723      4726      4718      4717      4720      4721
      4718      4717      4720      4722      4718      4717      4720      4723
      4719      4717      4720      4721      4719      4717      4720      4722
      4719      4717      4720      4723      4720      4723      4726      4727
      4720      4723      4726      4728      4720      4723      4726      4729
      4721      4720      4723      4724      4721      4720      4723      4725
      4721      4720      4723      4726      4722      4720      4723      4724
      4722      4720      4723      4725      4722      4720      4723      4726
      4723      4726      4729      4730      4723      4726      4729      4731
      4723      4726      4729      4732      4724      4723      4726      4727
      4724      4723      4726      4728      4724      4723      4726      4729
      4725      4723      4726      4727      4725      4723      4726      4728
      4725      4723      4726      4729      4726      4729      4732      4733
      4726      4729      4732      4734      4727      4726      4729      4730
      4727      4726      4729      4731      4727      4726      4729      4732
      4728      4726      4729      4730      4728      4726      4729      4731
      4728      4726      4729      4732      4729      4732      4734      4735
      4729      4732      4734      4736      4730      4729      4732      4733
      4730      4729      4732      4734      4731      4729      4732      4733
      4731      4729      4732      4734      4732      4734      4736      4737
      4732      4734      4736      4738      4732      4734      4736      4739
      4733      4732      4734      4735      4733      4732      4734      4736
      4734      4736      4739      4740      4734      4736      4739      4741
      4734      4736      4739      4742      4735      4734      4736      4737
      4735      4734      4736      4738      4735      4734      4736      4739
      4736      4739      4742      4743      4736      4739      4742      4744
      4736      4739      4742      4745      4737      4736      4739      4740
      4737      4736      4739      4741      4737      4736      4739      4742
      4738      4736      4739      4740      4738      4736      4739      4741
      4738      4736      4739      4742      4739      4742      4745      4746
      4739      4742      4745      4747      4739      4742      4745      4748
      4740      4739      4742      4743      4740      4739      4742      4744
      4740      4739      4742      4745      4741      4739      4742      4743
      4741      4739      4742      4744      4741      4739      4742      4745
      4742      4745      4748      4749      4742      4745      4748      4750
      4742      4745      4748      4751      4743      4742      4745      4746
      4743      4742      4745      4747      4743      4742      4745      4748
      4744      4742      4745      4746      4744      4742      4745      4747
      4744      4742      4745      4748      4745      4748      4751      4752
      4745      4748      4751      4753      4745      4748      4751      4754
      4746      4745      4748      4749      4746      4745      4748      4750
      4746      4745      4748      4751      4747      4745      4748      4749
      4747      4745      4748      4750      4747      4745      4748      4751
      4748      4751      4754      4755      4748      4751      4754      4756
      4748      4751      4754      4757      4749      4748      4751      4752
      4749      4748      4751      4753      4749      4748      4751      4754
      4750      4748      4751      4752      4750      4748      4751      4753
      4750      4748      4751      4754      4751      4754      4757      4758
      4751      4754      4757      4759      4751      4754      4757      4760
      4752      4751      4754      4755      4752      4751      4754      4756
      4752      4751      4754      4757      4753      4751      4754      4755
      4753      4751      4754      4756      4753      4751      4754      4757
      4755      4754      4757      4758      4755      4754      4757      4759
      4755      4754      4757      4760      4756      4754      4757      4758
      4756      4754      4757      4759      4756      4754      4757      4760
      4761      4765      4768      4769      4761      4765      4768      4770
      4761      4765      4768      4775      4762      4761      4765      4766
      4762      4761      4765      4767      4762      4761      4765      4768
      4763      4761      4765      4766      4763      4761      4765      4767
      4763      4761      4765      4768      4764      4761      4765      4766
      4764      4761      4765      4767      4764      4761      4765      4768
      4765      4768      4775      4771      4766      4765      4768      4769
      4766      4765      4768      4770      4766      4765      4768      4775
      4767      4765      4768      4769      4767      4765      4768      4770
      4767      4765      4768      4775      4768      4775      4771      4772
      4768      4775      4771      4773      4768      4775      4771      4774
      4769      4768      4775      4771      4770      4768      4775      4771
      4771      4774      4776      4777      4771      4774      4776      4778
      4771      4774      4776      4779      4772      4771      4774      4776
      4773      4771      4774      4776      4774      4776      4779      4780
      4774      4776      4779      4781      4774      4776      4779      4787
      4775      4771      4774      4776      4776      4779      4781      4782
      4776      4779      4787      4788      4776      4779      4787      4789
      4776      4779      4787      4790      4777      4776      4779      4780
      4777      4776      4779      4781      4777      4776      4779      4787
      4778      4776      4779      4780      4778      4776      4779      4781
      4778      4776      4779      4787      4779      4781      4782      4783
      4779      4781      4782      4784      4779      4787      4790      4791
      4780      4779      4781      4782      4780      4779      4787      4788
      4780      4779      4787      4789      4780      4779      4787      4790
      4781      4779      4787      4788      4781      4779      4787      4789
      4781      4779      4787      4790      4781      4782      4784      4785
      4781      4782      4784      4786      4781      4782      4784      4796
      4782      4781      4779      4787      4782      4784      4796      4797
      4782      4784      4796      4798      4782      4784      4796      4799
      4783      4782      4784      4785      4783      4782      4784      4786
      4783      4782      4784      4796      4784      4796      4799      4800
      4784      4796      4799      4801      4784      4796      4799      4802
      4785      4784      4796      4797      4785      4784      4796      4798
      4785      4784      4796      4799      4786      4784      4796      4797
      4786      4784      4796      4798      4786      4784      4796      4799
      4787      4790      4791      4792      4787      4790      4791      4793
      4788      4787      4790      4791      4789      4787      4790      4791
      4790      4791      4793      4794      4790      4791      4793      4795
      4790      4791      4793      4843      4791      4793      4843      4844
      4791      4793      4843      4845      4791      4793      4843      4846
      4792      4791      4793      4794      4792      4791      4793      4795
      4792      4791      4793      4843      4793      4843      4846      4847
      4793      4843      4846      4848      4793      4843      4846      4849
      4794      4793      4843      4844      4794      4793      4843      4845
      4794      4793      4843      4846      4795      4793      4843      4844
      4795      4793      4843      4845      4795      4793      4843      4846
      4796      4799      4802      4803      4796      4799      4802      4804
      4796      4799      4802      4805      4797      4796      4799      4800
      4797      4796      4799      4801      4797      4796      4799      4802
      4798      4796      4799      4800      4798      4796      4799      4801
      4798      4796      4799      4802      4799      4802      4805      4806
      4799      4802      4805      4807      4799      4802      4805      4808
      4800      4799      4802      4803      4800      4799      4802      4804
      4800      4799      4802      4805      4801      4799      4802      4803
      4801      4799      4802      4804      4801      4799      4802      4805
      4802      4805      4808      4809      4802      4805      4808      4810
      4802      4805      4808      4811      4803      4802      4805      4806
      4803      4802      4805      4807      4803      4802      4805      4808
      4804      4802      4805      4806      4804      4802      4805      4807
      4804      4802      4805      4808      4805      4808      4811      4812
      4805      4808      4811      4813      4805      4808      4811      4814
      4806      4805      4808      4809      4806      4805      4808      4810
      4806      4805      4808      4811      4807      4805      4808      4809
      4807      4805      4808      4810      4807      4805      4808      4811
      4808      4811      4814      4815      4808      4811      4814      4816
      4809      4808      4811      4812      4809      4808      4811      4813
      4809      4808      4811      4814      4810      4808      4811      4812
      4810      4808      4811      4813      4810      4808      4811      4814
      4811      4814      4816      4817      4811      4814      4816      4818
      4812      4811      4814      4815      4812      4811      4814      4816
      4813      4811      4814      4815      4813      4811      4814      4816
      4814      4816      4818      4819      4814      4816      4818      4820
      4814      4816      4818      4821      4815      4814      4816      4817
      4815      4814      4816      4818      4816      4818      4821      4822
      4816      4818      4821      4823      4816      4818      4821      4824
      4817      4816      4818      4819      4817      4816      4818      4820
      4817      4816      4818      4821      4818      4821      4824      4825
      4818      4821      4824      4826      4818      4821      4824      4827
      4819      4818      4821      4822      4819      4818      4821      4823
      4819      4818      4821      4824      4820      4818      4821      4822
      4820      4818      4821      4823      4820      4818      4821      4824
      4821      4824      4827      4828      4821      4824      4827      4829
      4821      4824      4827      4830      4822      4821      4824      4825
      4822      4821      4824      4826      4822      4821      4824      4827
      4823      4821      4824      4825      4823      4821      4824      4826
      4823      4821      4824      4827      4824      4827      4830      4831
      4824      4827      4830      4832      4824      4827      4830      4833
      4825      4824      4827      4828      4825      4824      4827      4829
      4825      4824      4827      4830      4826      4824      4827      4828
      4826      4824      4827      4829      4826      4824      4827      4830
      4827      4830      4833      4834      4827      4830      4833      4835
      4827      4830      4833      4836      4828      4827      4830      4831
      4828      4827      4830      4832      4828      4827      4830      4833
      4829      4827      4830      4831      4829      4827      4830      4832
      4829      4827      4830      4833      4830      4833      4836      4837
      4830      4833      4836      4838      4830      4833      4836      4839
      4831      4830      4833      4834      4831      4830      4833      4835
      4831      4830      4833      4836      4832      4830      4833      4834
      4832      4830      4833      4835      4832      4830      4833      4836
      4833      4836      4839      4840      4833      4836      4839      4841
      4833      4836      4839      4842      4834      4833      4836      4837
      4834      4833      4836      4838      4834      4833      4836      4839
      4835      4833      4836      4837      4835      4833      4836      4838
      4835      4833      4836      4839      4837      4836      4839      4840
      4837      4836      4839      4841      4837      4836      4839      4842
      4838      4836      4839      4840      4838      4836      4839      4841
      4838      4836      4839      4842      4843      4846      4849      4850
      4843      4846      4849      4851      4843      4846      4849      4852
      4844      4843      4846      4847      4844      4843      4846      4848
      4844      4843      4846      4849      4845      4843      4846      4847
      4845      4843      4846      4848      4845      4843      4846      4849
      4846      4849      4852      4853      4846      4849      4852      4854
      4846      4849      4852      4855      4847      4846      4849      4850
      4847      4846      4849      4851      4847      4846      4849      4852
      4848      4846      4849      4850      4848      4846      4849      4851
      4848      4846      4849      4852      4849      4852      4855      4856
      4849      4852      4855      4857      4849      4852      4855      4858
      4850      4849      4852      4853      4850      4849      4852      4854
      4850      4849      4852      4855      4851      4849      4852      4853
      4851      4849      4852      4854      4851      4849      4852      4855
      4852      4855      4858      4859      4852      4855      4858      4860
      4852      4855      4858      4861      4853      4852      4855      4856
      4853      4852      4855      4857      4853      4852      4855      4858
      4854      4852      4855      4856      4854      4852      4855      4857
      4854      4852      4855      4858      4855      4858      4861      4862
      4855      4858      4861      4863      4856      4855      4858      4859
      4856      4855      4858      4860      4856      4855      4858      4861
      4857      4855      4858      4859      4857      4855      4858      4860
      4857      4855      4858      4861      4858      4861      4863      4864
      4858      4861      4863      4865      4859      4858      4861      4862
      4859      4858      4861      4863      4860      4858      4861      4862
      4860      4858      4861      4863      4861      4863      4865      4866
      4861      4863      4865      4867      4861      4863      4865      4868
      4862      4861      4863      4864      4862      4861      4863      4865
      4863      4865      4868      4869      4863      4865      4868      4870
      4863      4865      4868      4871      4864      4863      4865      4866
      4864      4863      4865      4867      4864      4863      4865      4868
      4865      4868      4871      4872      4865      4868      4871      4873
      4865      4868      4871      4874      4866      4865      4868      4869
      4866      4865      4868      4870      4866      4865      4868      4871
      4867      4865      4868      4869      4867      4865      4868      4870
      4867      4865      4868      4871      4868      4871      4874      4875
      4868      4871      4874      4876      4868      4871      4874      4877
      4869      4868      4871      4872      4869      4868      4871      4873
      4869      4868      4871      4874      4870      4868      4871      4872
      4870      4868      4871      4873      4870      4868      4871      4874
      4871      4874      4877      4878      4871      4874      4877      4879
      4871      4874      4877      4880      4872      4871      4874      4875
      4872      4871      4874      4876      4872      4871      4874      4877
      4873      4871      4874      4875      4873      4871      4874      4876
      4873      4871      4874      4877      4874      4877      4880      4881
      4874      4877      4880      4882      4874      4877      4880      4883
      4875      4874      4877      4878      4875      4874      4877      4879
      4875      4874      4877      4880      4876      4874      4877      4878
      4876      4874      4877      4879      4876      4874      4877      4880
      4877      4880      4883      4884      4877      4880      4883      4885
      4877      4880      4883      4886      4878      4877      4880      4881
      4878      4877      4880      4882      4878      4877      4880      4883
      4879      4877      4880      4881      4879      4877      4880      4882
      4879      4877      4880      4883      4880      4883      4886      4887
      4880      4883      4886      4888      4880      4883      4886      4889
      4881      4880      4883      4884      4881      4880      4883      4885
      4881      4880      4883      4886      4882      4880      4883      4884
      4882      4880      4883      4885      4882      4880      4883      4886
      4884      4883      4886      4887      4884      4883      4886      4888
      4884      4883      4886      4889      4885      4883      4886      4887
      4885      4883      4886      4888      4885      4883      4886      4889
      4890      4894      4897      4898      4890      4894      4897      4928
      4890      4936      4933      4928      4890      4936      4933      4934
      4890      4936      4933      4935      4891      4890      4892      4893
      4891      4890      4894      4895      4891      4890      4894      4896
      4891      4890      4894      4897      4891      4890      4936      4933
      4891      4890      4936      4937      4891      4890      4936      4938
      4892      4890      4894      4895      4892      4890      4894      4896
      4892      4890      4894      4897      4892      4890      4936      4933
      4892      4890      4936      4937      4892      4890      4936      4938
      4893      4892      4890      4894      4893      4892      4890      4936
      4894      4890      4936      4933      4894      4890      4936      4937
      4894      4890      4936      4938      4894      4897      4898      4899
      4894      4897      4898      4900      4894      4897      4928      4926
      4894      4897      4928      4929      4894      4897      4928      4933
      4895      4894      4890      4936      4895      4894      4897      4898
      4895      4894      4897      4928      4896      4894      4890      4936
      4896      4894      4897      4898      4896      4894      4897      4928
      4897      4894      4890      4936      4897      4898      4900      4901
      4897      4898      4900      4902      4897      4898      4900      4903
      4897      4928      4926      4903      4897      4928      4926      4923
      4897      4928      4926      4927      4897      4928      4929      4930
      4897      4928      4929      4931      4897      4928      4929      4932
      4897      4928      4933      4934      4897      4928      4933      4935
      4897      4928      4933      4936      4898      4897      4928      4926
      4898      4897      4928      4929      4898      4897      4928      4933
      4898      4900      4903      4904      4898      4900      4903      4905
      4898      4900      4903      4926      4899      4898      4897      4928
      4899      4898      4900      4901      4899      4898      4900      4902
      4899      4898      4900      4903      4900      4898      4897      4928
      4900      4903      4905      4906      4900      4903      4905      4907
      4900      4903      4905      4915      4900      4903      4926      4923
      4900      4903      4926      4927      4900      4903      4926      4928
      4901      4900      4903      4904      4901      4900      4903      4905
      4901      4900      4903      4926      4902      4900      4903      4904
      4902      4900      4903      4905      4902      4900      4903      4926
      4903      4905      4907      4908      4903      4905      4907      4909
      4903      4905      4907      4910      4903      4905      4915      4913
      4903      4905      4915      4916      4903      4905      4915      4920
      4903      4926      4923      4920      4903      4926      4923      4924
      4903      4926      4923      4925      4903      4926      4928      4929
      4903      4926      4928      4933      4904      4903      4905      4906
      4904      4903      4905      4907      4904      4903      4905      4915
      4904      4903      4926      4923      4904      4903      4926      4927
      4904      4903      4926      4928      4905      4903      4926      4923
      4905      4903      4926      4927      4905      4903      4926      4928
      4905      4907      4910      4911      4905      4907      4910      4912
      4905      4907      4910      4913      4905      4915      4913      4910
      4905      4915      4913      4914      4905      4915      4913      4939
      4905      4915      4916      4917      4905      4915      4916      4918
      4905      4915      4916      4919      4905      4915      4920      4921
      4905      4915      4920      4922      4905      4915      4920      4923
      4906      4905      4903      4926      4906      4905      4907      4908
      4906      4905      4907      4909      4906      4905      4907      4910
      4906      4905      4915      4913      4906      4905      4915      4916
      4906      4905      4915      4920      4907      4905      4903      4926
      4907      4905      4915      4913      4907      4905      4915      4916
      4907      4905      4915      4920      4907      4910      4913      4914
      4907      4910      4913      4915      4907      4910      4913      4939
      4908      4907      4905      4915      4908      4907      4910      4911
      4908      4907      4910      4912      4908      4907      4910      4913
      4909      4907      4905      4915      4909      4907      4910      4911
      4909      4907      4910      4912      4909      4907      4910      4913
      4910      4907      4905      4915      4910      4913      4915      4916
      4910      4913      4915      4920      4910      4913      4939      4940
      4910      4913      4939      4941      4910      4913      4939      4945
      4911      4910      4913      4914      4911      4910      4913      4915
      4911      4910      4913      4939      4912      4910      4913      4914
      4912      4910      4913      4915      4912      4910      4913      4939
      4913      4915      4916      4917      4913      4915      4916      4918
      4913      4915      4916      4919      4913      4915      4920      4921
      4913      4915      4920      4922      4913      4915      4920      4923
      4913      4939      4941      4942      4913      4939      4941      4943
      4913      4939      4941      4944      4913      4939      4945      4946
      4913      4939      4945      4947      4913      4939      4945      4948
      4914      4913      4915      4916      4914      4913      4915      4920
      4914      4913      4939      4940      4914      4913      4939      4941
      4914      4913      4939      4945      4915      4905      4903      4926
      4915      4913      4939      4940      4915      4913      4939      4941
      4915      4913      4939      4945      4915      4920      4923      4924
      4915      4920      4923      4925      4915      4920      4923      4926
      4916      4915      4913      4939      4916      4915      4920      4921
      4916      4915      4920      4922      4916      4915      4920      4923
      4917      4916      4915      4920      4918      4916      4915      4920
      4919      4916      4915      4920      4920      4915      4913      4939
      4920      4923      4926      4927      4920      4923      4926      4928
      4921      4920      4923      4924      4921      4920      4923      4925
      4921      4920      4923      4926      4922      4920      4923      4924
      4922      4920      4923      4925      4922      4920      4923      4926
      4923      4926      4928      4929      4923      4926      4928      4933
      4924      4923      4926      4927      4924      4923      4926      4928
      4925      4923      4926      4927      4925      4923      4926      4928
      4926      4928      4929      4930      4926      4928      4929      4931
      4926      4928      4929      4932      4926      4928      4933      4934
      4926      4928      4933      4935      4926      4928      4933      4936
      4927      4926      4928      4929      4927      4926      4928      4933
      4928      4933      4936      4937      4928      4933      4936      4938
      4929      4928      4933      4934      4929      4928      4933      4935
      4929      4928      4933      4936      4930      4929      4928      4933
      4931      4929      4928      4933      4932      4929      4928      4933
      4934      4933      4936      4937      4934      4933      4936      4938
      4935      4933      4936      4937      4935      4933      4936      4938
      4939      4945      4948      4949      4939      4945      4948      4950
      4939      4945      4948      4951      4940      4939      4941      4942
      4940      4939      4941      4943      4940      4939      4941      4944
      4940      4939      4945      4946      4940      4939      4945      4947
      4940      4939      4945      4948      4941      4939      4945      4946
      4941      4939      4945      4947      4941      4939      4945      4948
      4942      4941      4939      4945      4943      4941      4939      4945
      4944      4941      4939      4945      4945      4948      4951      4952
      4945      4948      4951      4953      4945      4948      4951      4954
      4946      4945      4948      4949      4946      4945      4948      4950
      4946      4945      4948      4951      4947      4945      4948      4949
      4947      4945      4948      4950      4947      4945      4948      4951
      4948      4951      4954      4955      4948      4951      4954      4956
      4948      4951      4954      4960      4949      4948      4951      4952
      4949      4948      4951      4953      4949      4948      4951      4954
      4950      4948      4951      4952      4950      4948      4951      4953
      4950      4948      4951      4954      4951      4954      4956      4957
      4951      4954      4956      4958      4951      4954      4956      4959
      4951      4954      4960      4961      4951      4954      4960      4962
      4951      4954      4960      4963      4952      4951      4954      4955
      4952      4951      4954      4956      4952      4951      4954      4960
      4953      4951      4954      4955      4953      4951      4954      4956
      4953      4951      4954      4960      4955      4954      4956      4957
      4955      4954      4956      4958      4955      4954      4956      4959
      4955      4954      4960      4961      4955      4954      4960      4962
      4955      4954      4960      4963      4956      4954      4960      4961
      4956      4954      4960      4962      4956      4954      4960      4963
      4957      4956      4954      4960      4958      4956      4954      4960
      4959      4956      4954      4960      4964      4968      4971      4972
      4964      4968      4971      4973      4964      4968      4971      4978
      4965      4964      4968      4969      4965      4964      4968      4970
      4965      4964      4968      4971      4966      4964      4968      4969
      4966      4964      4968      4970      4966      4964      4968      4971
      4967      4964      4968      4969      4967      4964      4968      4970
      4967      4964      4968      4971      4968      4971      4978      4974
      4969      4968      4971      4972      4969      4968      4971      4973
      4969      4968      4971      4978      4970      4968      4971      4972
      4970      4968      4971      4973      4970      4968      4971      4978
      4971      4978      4974      4975      4971      4978      4974      4976
      4971      4978      4974      4977      4972      4971      4978      4974
      4973      4971      4978      4974      4974      4977      4979      4980
      4974      4977      4979      4981      4974      4977      4979      4982
      4975      4974      4977      4979      4976      4974      4977      4979
      4977      4979      4982      4983      4977      4979      4982      4984
      4977      4979      4982      4990      4978      4974      4977      4979
      4979      4982      4984      4985      4979      4982      4990      4991
      4979      4982      4990      4992      4979      4982      4990      4993
      4980      4979      4982      4983      4980      4979      4982      4984
      4980      4979      4982      4990      4981      4979      4982      4983
      4981      4979      4982      4984      4981      4979      4982      4990
      4982      4984      4985      4986      4982      4984      4985      4987
      4982      4990      4993      4994      4983      4982      4984      4985
      4983      4982      4990      4991      4983      4982      4990      4992
      4983      4982      4990      4993      4984      4982      4990      4991
      4984      4982      4990      4992      4984      4982      4990      4993
      4984      4985      4987      4988      4984      4985      4987      4989
      4984      4985      4987      4999      4985      4984      4982      4990
      4985      4987      4999      5000      4985      4987      4999      5001
      4985      4987      4999      5002      4986      4985      4987      4988
      4986      4985      4987      4989      4986      4985      4987      4999
      4987      4999      5002      5003      4987      4999      5002      5004
      4987      4999      5002      5005      4988      4987      4999      5000
      4988      4987      4999      5001      4988      4987      4999      5002
      4989      4987      4999      5000      4989      4987      4999      5001
      4989      4987      4999      5002      4990      4993      4994      4995
      4990      4993      4994      4996      4991      4990      4993      4994
      4992      4990      4993      4994      4993      4994      4996      4997
      4993      4994      4996      4998      4993      4994      4996      5046
      4994      4996      5046      5047      4994      4996      5046      5048
      4994      4996      5046      5049      4995      4994      4996      4997
      4995      4994      4996      4998      4995      4994      4996      5046
      4996      5046      5049      5050      4996      5046      5049      5051
      4996      5046      5049      5052      4997      4996      5046      5047
      4997      4996      5046      5048      4997      4996      5046      5049
      4998      4996      5046      5047      4998      4996      5046      5048
      4998      4996      5046      5049      4999      5002      5005      5006
      4999      5002      5005      5007      4999      5002      5005      5008
      5000      4999      5002      5003      5000      4999      5002      5004
      5000      4999      5002      5005      5001      4999      5002      5003
      5001      4999      5002      5004      5001      4999      5002      5005
      5002      5005      5008      5009      5002      5005      5008      5010
      5002      5005      5008      5011      5003      5002      5005      5006
      5003      5002      5005      5007      5003      5002      5005      5008
      5004      5002      5005      5006      5004      5002      5005      5007
      5004      5002      5005      5008      5005      5008      5011      5012
      5005      5008      5011      5013      5005      5008      5011      5014
      5006      5005      5008      5009      5006      5005      5008      5010
      5006      5005      5008      5011      5007      5005      5008      5009
      5007      5005      5008      5010      5007      5005      5008      5011
      5008      5011      5014      5015      5008      5011      5014      5016
      5008      5011      5014      5017      5009      5008      5011      5012
      5009      5008      5011      5013      5009      5008      5011      5014
      5010      5008      5011      5012      5010      5008      5011      5013
      5010      5008      5011      5014      5011      5014      5017      5018
      5011      5014      5017      5019      5012      5011      5014      5015
      5012      5011      5014      5016      5012      5011      5014      5017
      5013      5011      5014      5015      5013      5011      5014      5016
      5013      5011      5014      5017      5014      5017      5019      5020
      5014      5017      5019      5021      5015      5014      5017      5018
      5015      5014      5017      5019      5016      5014      5017      5018
      5016      5014      5017      5019      5017      5019      5021      5022
      5017      5019      5021      5023      5017      5019      5021      5024
      5018      5017      5019      5020      5018      5017      5019      5021
      5019      5021      5024      5025      5019      5021      5024      5026
      5019      5021      5024      5027      5020      5019      5021      5022
      5020      5019      5021      5023      5020      5019      5021      5024
      5021      5024      5027      5028      5021      5024      5027      5029
      5021      5024      5027      5030      5022      5021      5024      5025
      5022      5021      5024      5026      5022      5021      5024      5027
      5023      5021      5024      5025      5023      5021      5024      5026
      5023      5021      5024      5027      5024      5027      5030      5031
      5024      5027      5030      5032      5024      5027      5030      5033
      5025      5024      5027      5028      5025      5024      5027      5029
      5025      5024      5027      5030      5026      5024      5027      5028
      5026      5024      5027      5029      5026      5024      5027      5030
      5027      5030      5033      5034      5027      5030      5033      5035
      5027      5030      5033      5036      5028      5027      5030      5031
      5028      5027      5030      5032      5028      5027      5030      5033
      5029      5027      5030      5031      5029      5027      5030      5032
      5029      5027      5030      5033      5030      5033      5036      5037
      5030      5033      5036      5038      5030      5033      5036      5039
      5031      5030      5033      5034      5031      5030      5033      5035
      5031      5030      5033      5036      5032      5030      5033      5034
      5032      5030      5033      5035      5032      5030      5033      5036
      5033      5036      5039      5040      5033      5036      5039      5041
      5033      5036      5039      5042      5034      5033      5036      5037
      5034      5033      5036      5038      5034      5033      5036      5039
      5035      5033      5036      5037      5035      5033      5036      5038
      5035      5033      5036      5039      5036      5039      5042      5043
      5036      5039      5042      5044      5036      5039      5042      5045
      5037      5036      5039      5040      5037      5036      5039      5041
      5037      5036      5039      5042      5038      5036      5039      5040
      5038      5036      5039      5041      5038      5036      5039      5042
      5040      5039      5042      5043      5040      5039      5042      5044
      5040      5039      5042      5045      5041      5039      5042      5043
      5041      5039      5042      5044      5041      5039      5042      5045
      5046      5049      5052      5053      5046      5049      5052      5054
      5046      5049      5052      5055      5047      5046      5049      5050
      5047      5046      5049      5051      5047      5046      5049      5052
      5048      5046      5049      5050      5048      5046      5049      5051
      5048      5046      5049      5052      5049      5052      5055      5056
      5049      5052      5055      5057      5049      5052      5055      5058
      5050      5049      5052      5053      5050      5049      5052      5054
      5050      5049      5052      5055      5051      5049      5052      5053
      5051      5049      5052      5054      5051      5049      5052      5055
      5052      5055      5058      5059      5052      5055      5058      5060
      5052      5055      5058      5061      5053      5052      5055      5056
      5053      5052      5055      5057      5053      5052      5055      5058
      5054      5052      5055      5056      5054      5052      5055      5057
      5054      5052      5055      5058      5055      5058      5061      5062
      5055      5058      5061      5063      5055      5058      5061      5064
      5056      5055      5058      5059      5056      5055      5058      5060
      5056      5055      5058      5061      5057      5055      5058      5059
      5057      5055      5058      5060      5057      5055      5058      5061
      5058      5061      5064      5065      5058      5061      5064      5066
      5059      5058      5061      5062      5059      5058      5061      5063
      5059      5058      5061      5064      5060      5058      5061      5062
      5060      5058      5061      5063      5060      5058      5061      5064
      5061      5064      5066      5067      5061      5064      5066      5068
      5062      5061      5064      5065      5062      5061      5064      5066
      5063      5061      5064      5065      5063      5061      5064      5066
      5064      5066      5068      5069      5064      5066      5068      5070
      5064      5066      5068      5071      5065      5064      5066      5067
      5065      5064      5066      5068      5066      5068      5071      5072
      5066      5068      5071      5073      5066      5068      5071      5074
      5067      5066      5068      5069      5067      5066      5068      5070
      5067      5066      5068      5071      5068      5071      5074      5075
      5068      5071      5074      5076      5068      5071      5074      5077
      5069      5068      5071      5072      5069      5068      5071      5073
      5069      5068      5071      5074      5070      5068      5071      5072
      5070      5068      5071      5073      5070      5068      5071      5074
      5071      5074      5077      5078      5071      5074      5077      5079
      5071      5074      5077      5080      5072      5071      5074      5075
      5072      5071      5074      5076      5072      5071      5074      5077
      5073      5071      5074      5075      5073      5071      5074      5076
      5073      5071      5074      5077      5074      5077      5080      5081
      5074      5077      5080      5082      5074      5077      5080      5083
      5075      5074      5077      5078      5075      5074      5077      5079
      5075      5074      5077      5080      5076      5074      5077      5078
      5076      5074      5077      5079      5076      5074      5077      5080
      5077      5080      5083      5084      5077      5080      5083      5085
      5077      5080      5083      5086      5078      5077      5080      5081
      5078      5077      5080      5082      5078      5077      5080      5083
      5079      5077      5080      5081      5079      5077      5080      5082
      5079      5077      5080      5083      5080      5083      5086      5087
      5080      5083      5086      5088      5080      5083      5086      5089
      5081      5080      5083      5084      5081      5080      5083      5085
      5081      5080      5083      5086      5082      5080      5083      5084
      5082      5080      5083      5085      5082      5080      5083      5086
      5083      5086      5089      5090      5083      5086      5089      5091
      5083      5086      5089      5092      5084      5083      5086      5087
      5084      5083      5086      5088      5084      5083      5086      5089
      5085      5083      5086      5087      5085      5083      5086      5088
      5085      5083      5086      5089      5087      5086      5089      5090
      5087      5086      5089      5091      5087      5086      5089      5092
      5088      5086      5089      5090      5088      5086      5089      5091
      5088      5086      5089      5092      5093      5097      5100      5101
      5093      5097      5100      5102      5093      5097      5100      5107
      5094      5093      5097      5098      5094      5093      5097      5099
      5094      5093      5097      5100      5095      5093      5097      5098
      5095      5093      5097      5099      5095      5093      5097      5100
      5096      5093      5097      5098      5096      5093      5097      5099
      5096      5093      5097      5100      5097      5100      5107      5103
      5098      5097      5100      5101      5098      5097      5100      5102
      5098      5097      5100      5107      5099      5097      5100      5101
      5099      5097      5100      5102      5099      5097      5100      5107
      5100      5107      5103      5104      5100      5107      5103      5105
      5100      5107      5103      5106      5101      5100      5107      5103
      5102      5100      5107      5103      5103      5106      5108      5109
      5103      5106      5108      5110      5103      5106      5108      5111
      5104      5103      5106      5108      5105      5103      5106      5108
      5106      5108      5111      5112      5106      5108      5111      5113
      5106      5108      5111      5119      5107      5103      5106      5108
      5108      5111      5113      5114      5108      5111      5119      5120
      5108      5111      5119      5121      5108      5111      5119      5122
      5109      5108      5111      5112      5109      5108      5111      5113
      5109      5108      5111      5119      5110      5108      5111      5112
      5110      5108      5111      5113      5110      5108      5111      5119
      5111      5113      5114      5115      5111      5113      5114      5116
      5111      5119      5122      5123      5112      5111      5113      5114
      5112      5111      5119      5120      5112      5111      5119      5121
      5112      5111      5119      5122      5113      5111      5119      5120
      5113      5111      5119      5121      5113      5111      5119      5122
      5113      5114      5116      5117      5113      5114      5116      5118
      5113      5114      5116      5128      5114      5113      5111      5119
      5114      5116      5128      5129      5114      5116      5128      5130
      5114      5116      5128      5131      5115      5114      5116      5117
      5115      5114      5116      5118      5115      5114      5116      5128
      5116      5128      5131      5132      5116      5128      5131      5133
      5116      5128      5131      5134      5117      5116      5128      5129
      5117      5116      5128      5130      5117      5116      5128      5131
      5118      5116      5128      5129      5118      5116      5128      5130
      5118      5116      5128      5131      5119      5122      5123      5124
      5119      5122      5123      5125      5120      5119      5122      5123
      5121      5119      5122      5123      5122      5123      5125      5126
      5122      5123      5125      5127      5122      5123      5125      5175
      5123      5125      5175      5176      5123      5125      5175      5177
      5123      5125      5175      5178      5124      5123      5125      5126
      5124      5123      5125      5127      5124      5123      5125      5175
      5125      5175      5178      5179      5125      5175      5178      5180
      5125      5175      5178      5181      5126      5125      5175      5176
      5126      5125      5175      5177      5126      5125      5175      5178
      5127      5125      5175      5176      5127      5125      5175      5177
      5127      5125      5175      5178      5128      5131      5134      5135
      5128      5131      5134      5136      5128      5131      5134      5137
      5129      5128      5131      5132      5129      5128      5131      5133
      5129      5128      5131      5134      5130      5128      5131      5132
      5130      5128      5131      5133      5130      5128      5131      5134
      5131      5134      5137      5138      5131      5134      5137      5139
      5131      5134      5137      5140      5132      5131      5134      5135
      5132      5131      5134      5136      5132      5131      5134      5137
      5133      5131      5134      5135      5133      5131      5134      5136
      5133      5131      5134      5137      5134      5137      5140      5141
      5134      5137      5140      5142      5134      5137      5140      5143
      5135      5134      5137      5138      5135      5134      5137      5139
      5135      5134      5137      5140      5136      5134      5137      5138
      5136      5134      5137      5139      5136      5134      5137      5140
      5137      5140      5143      5144      5137      5140      5143      5145
      5137      5140      5143      5146      5138      5137      5140      5141
      5138      5137      5140      5142      5138      5137      5140      5143
      5139      5137      5140      5141      5139      5137      5140      5142
      5139      5137      5140      5143      5140      5143      5146      5147
      5140      5143      5146      5148      5141      5140      5143      5144
      5141      5140      5143      5145      5141      5140      5143      5146
      5142      5140      5143      5144      5142      5140      5143      5145
      5142      5140      5143      5146      5143      5146      5148      5149
      5143      5146      5148      5150      5144      5143      5146      5147
      5144      5143      5146      5148      5145      5143      5146      5147
      5145      5143      5146      5148      5146      5148      5150      5151
      5146      5148      5150      5152      5146      5148      5150      5153
      5147      5146      5148      5149      5147      5146      5148      5150
      5148      5150      5153      5154      5148      5150      5153      5155
      5148      5150      5153      5156      5149      5148      5150      5151
      5149      5148      5150      5152      5149      5148      5150      5153
      5150      5153      5156      5157      5150      5153      5156      5158
      5150      5153      5156      5159      5151      5150      5153      5154
      5151      5150      5153      5155      5151      5150      5153      5156
      5152      5150      5153      5154      5152      5150      5153      5155
      5152      5150      5153      5156      5153      5156      5159      5160
      5153      5156      5159      5161      5153      5156      5159      5162
      5154      5153      5156      5157      5154      5153      5156      5158
      5154      5153      5156      5159      5155      5153      5156      5157
      5155      5153      5156      5158      5155      5153      5156      5159
      5156      5159      5162      5163      5156      5159      5162      5164
      5156      5159      5162      5165      5157      5156      5159      5160
      5157      5156      5159      5161      5157      5156      5159      5162
      5158      5156      5159      5160      5158      5156      5159      5161
      5158      5156      5159      5162      5159      5162      5165      5166
      5159      5162      5165      5167      5159      5162      5165      5168
      5160      5159      5162      5163      5160      5159      5162      5164
      5160      5159      5162      5165      5161      5159      5162      5163
      5161      5159      5162      5164      5161      5159      5162      5165
      5162      5165      5168      5169      5162      5165      5168      5170
      5162      5165      5168      5171      5163      5162      5165      5166
      5163      5162      5165      5167      5163      5162      5165      5168
      5164      5162      5165      5166      5164      5162      5165      5167
      5164      5162      5165      5168      5165      5168      5171      5172
      5165      5168      5171      5173      5165      5168      5171      5174
      5166      5165      5168      5169      5166      5165      5168      5170
      5166      5165      5168      5171      5167      5165      5168      5169
      5167      5165      5168      5170      5167      5165      5168      5171
      5169      5168      5171      5172      5169      5168      5171      5173
      5169      5168      5171      5174      5170      5168      5171      5172
      5170      5168      5171      5173      5170      5168      5171      5174
      5175      5178      5181      5182      5175      5178      5181      5183
      5175      5178      5181      5184      5176      5175      5178      5179
      5176      5175      5178      5180      5176      5175      5178      5181
      5177      5175      5178      5179      5177      5175      5178      5180
      5177      5175      5178      5181      5178      5181      5184      5185
      5178      5181      5184      5186      5178      5181      5184      5187
      5179      5178      5181      5182      5179      5178      5181      5183
      5179      5178      5181      5184      5180      5178      5181      5182
      5180      5178      5181      5183      5180      5178      5181      5184
      5181      5184      5187      5188      5181      5184      5187      5189
      5181      5184      5187      5190      5182      5181      5184      5185
      5182      5181      5184      5186      5182      5181      5184      5187
      5183      5181      5184      5185      5183      5181      5184      5186
      5183      5181      5184      5187      5184      5187      5190      5191
      5184      5187      5190      5192      5184      5187      5190      5193
      5185      5184      5187      5188      5185      5184      5187      5189
      5185      5184      5187      5190      5186      5184      5187      5188
      5186      5184      5187      5189      5186      5184      5187      5190
      5187      5190      5193      5194      5187      5190      5193      5195
      5188      5187      5190      5191      5188      5187      5190      5192
      5188      5187      5190      5193      5189      5187      5190      5191
      5189      5187      5190      5192      5189      5187      5190      5193
      5190      5193      5195      5196      5190      5193      5195      5197
      5191      5190      5193      5194      5191      5190      5193      5195
      5192      5190      5193      5194      5192      5190      5193      5195
      5193      5195      5197      5198      5193      5195      5197      5199
      5193      5195      5197      5200      5194      5193      5195      5196
      5194      5193      5195      5197      5195      5197      5200      5201
      5195      5197      5200      5202      5195      5197      5200      5203
      5196      5195      5197      5198      5196      5195      5197      5199
      5196      5195      5197      5200      5197      5200      5203      5204
      5197      5200      5203      5205      5197      5200      5203      5206
      5198      5197      5200      5201      5198      5197      5200      5202
      5198      5197      5200      5203      5199      5197      5200      5201
      5199      5197      5200      5202      5199      5197      5200      5203
      5200      5203      5206      5207      5200      5203      5206      5208
      5200      5203      5206      5209      5201      5200      5203      5204
      5201      5200      5203      5205      5201      5200      5203      5206
      5202      5200      5203      5204      5202      5200      5203      5205
      5202      5200      5203      5206      5203      5206      5209      5210
      5203      5206      5209      5211      5203      5206      5209      5212
      5204      5203      5206      5207      5204      5203      5206      5208
      5204      5203      5206      5209      5205      5203      5206      5207
      5205      5203      5206      5208      5205      5203      5206      5209
      5206      5209      5212      5213      5206      5209      5212      5214
      5206      5209      5212      5215      5207      5206      5209      5210
      5207      5206      5209      5211      5207      5206      5209      5212
      5208      5206      5209      5210      5208      5206      5209      5211
      5208      5206      5209      5212      5209      5212      5215      5216
      5209      5212      5215      5217      5209      5212      5215      5218
      5210      5209      5212      5213      5210      5209      5212      5214
      5210      5209      5212      5215      5211      5209      5212      5213
      5211      5209      5212      5214      5211      5209      5212      5215
      5212      5215      5218      5219      5212      5215      5218      5220
      5212      5215      5218      5221      5213      5212      5215      5216
      5213      5212      5215      5217      5213      5212      5215      5218
      5214      5212      5215      5216      5214      5212      5215      5217
      5214      5212      5215      5218      5216      5215      5218      5219
      5216      5215      5218      5220      5216      5215      5218      5221
      5217      5215      5218      5219      5217      5215      5218      5220
      5217      5215      5218      5221      5222      5223      5238      5239
      5222      5223      5238      5240      5222      5223      5238      5244
      5223      5222      5226      5227      5223      5222      5226      5228
      5223      5222      5226      5229      5223      5222      5230      5231
      5223      5222      5230      5232      5223      5222      5230      5233
      5223      5222      5234      5235      5223      5222      5234      5236
      5223      5222      5234      5237      5223      5238      5244      5241
      5224      5223      5222      5226      5224      5223      5222      5230
      5224      5223      5222      5234      5224      5223      5238      5239
      5224      5223      5238      5240      5224      5223      5238      5244
      5225      5223      5222      5226      5225      5223      5222      5230
      5225      5223      5222      5234      5225      5223      5238      5239
      5225      5223      5238      5240      5225      5223      5238      5244
      5226      5222      5223      5238      5226      5222      5230      5231
      5226      5222      5230      5232      5226      5222      5230      5233
      5226      5222      5234      5235      5226      5222      5234      5236
      5226      5222      5234      5237      5227      5226      5222      5230
      5227      5226      5222      5234      5228      5226      5222      5230
      5228      5226      5222      5234      5229      5226      5222      5230
      5229      5226      5222      5234      5230      5222      5223      5238
      5230      5222      5234      5235      5230      5222      5234      5236
      5230      5222      5234      5237      5231      5230      5222      5234
      5232      5230      5222      5234      5233      5230      5222      5234
      5234      5222      5223      5238      5238      5244      5241      5242
      5238      5244      5241      5243      5238      5244      5241      5245
      5239      5238      5244      5241      5240      5238      5244      5241
      5241      5245      5246      5247      5241      5245      5246      5248
      5241      5245      5246      5249      5242      5241      5245      5246
      5243      5241      5245      5246      5244      5241      5245      5246
      5245      5246      5249      5250      5245      5246      5249      5251
      5245      5246      5249      5257      5246      5249      5251      5252
      5246      5249      5257      5258      5246      5249      5257      5259
      5246      5249      5257      5260      5247      5246      5249      5250
      5247      5246      5249      5251      5247      5246      5249      5257
      5248      5246      5249      5250      5248      5246      5249      5251
      5248      5246      5249      5257      5249      5251      5252      5253
      5249      5251      5252      5254      5249      5257      5260      5261
      5250      5249      5251      5252      5250      5249      5257      5258
      5250      5249      5257      5259      5250      5249      5257      5260
      5251      5249      5257      5258      5251      5249      5257      5259
      5251      5249      5257      5260      5251      5252      5254      5255
      5251      5252      5254      5256      5251      5252      5254      5266
      5252      5251      5249      5257      5252      5254      5266      5267
      5252      5254      5266      5268      5252      5254      5266      5269
      5253      5252      5254      5255      5253      5252      5254      5256
      5253      5252      5254      5266      5254      5266      5269      5270
      5254      5266      5269      5271      5254      5266      5269      5272
      5255      5254      5266      5267      5255      5254      5266      5268
      5255      5254      5266      5269      5256      5254      5266      5267
      5256      5254      5266      5268      5256      5254      5266      5269
      5257      5260      5261      5262      5257      5260      5261      5263
      5258      5257      5260      5261      5259      5257      5260      5261
      5260      5261      5263      5264      5260      5261      5263      5265
      5260      5261      5263      5313      5261      5263      5313      5314
      5261      5263      5313      5315      5261      5263      5313      5316
      5262      5261      5263      5264      5262      5261      5263      5265
      5262      5261      5263      5313      5263      5313      5316      5317
      5263      5313      5316      5318      5263      5313      5316      5319
      5264      5263      5313      5314      5264      5263      5313      5315
      5264      5263      5313      5316      5265      5263      5313      5314
      5265      5263      5313      5315      5265      5263      5313      5316
      5266      5269      5272      5273      5266      5269      5272      5274
      5266      5269      5272      5275      5267      5266      5269      5270
      5267      5266      5269      5271      5267      5266      5269      5272
      5268      5266      5269      5270      5268      5266      5269      5271
      5268      5266      5269      5272      5269      5272      5275      5276
      5269      5272      5275      5277      5269      5272      5275      5278
      5270      5269      5272      5273      5270      5269      5272      5274
      5270      5269      5272      5275      5271      5269      5272      5273
      5271      5269      5272      5274      5271      5269      5272      5275
      5272      5275      5278      5279      5272      5275      5278      5280
      5272      5275      5278      5281      5273      5272      5275      5276
      5273      5272      5275      5277      5273      5272      5275      5278
      5274      5272      5275      5276      5274      5272      5275      5277
      5274      5272      5275      5278      5275      5278      5281      5282
      5275      5278      5281      5283      5275      5278      5281      5284
      5276      5275      5278      5279      5276      5275      5278      5280
      5276      5275      5278      5281      5277      5275      5278      5279
      5277      5275      5278      5280      5277      5275      5278      5281
      5278      5281      5284      5285      5278      5281      5284      5286
      5279      5278      5281      5282      5279      5278      5281      5283
      5279      5278      5281      5284      5280      5278      5281      5282
      5280      5278      5281      5283      5280      5278      5281      5284
      5281      5284      5286      5287      5281      5284      5286      5288
      5282      5281      5284      5285      5282      5281      5284      5286
      5283      5281      5284      5285      5283      5281      5284      5286
      5284      5286      5288      5289      5284      5286      5288      5290
      5284      5286      5288      5291      5285      5284      5286      5287
      5285      5284      5286      5288      5286      5288      5291      5292
      5286      5288      5291      5293      5286      5288      5291      5294
      5287      5286      5288      5289      5287      5286      5288      5290
      5287      5286      5288      5291      5288      5291      5294      5295
      5288      5291      5294      5296      5288      5291      5294      5297
      5289      5288      5291      5292      5289      5288      5291      5293
      5289      5288      5291      5294      5290      5288      5291      5292
      5290      5288      5291      5293      5290      5288      5291      5294
      5291      5294      5297      5298      5291      5294      5297      5299
      5291      5294      5297      5300      5292      5291      5294      5295
      5292      5291      5294      5296      5292      5291      5294      5297
      5293      5291      5294      5295      5293      5291      5294      5296
      5293      5291      5294      5297      5294      5297      5300      5301
      5294      5297      5300      5302      5294      5297      5300      5303
      5295      5294      5297      5298      5295      5294      5297      5299
      5295      5294      5297      5300      5296      5294      5297      5298
      5296      5294      5297      5299      5296      5294      5297      5300
      5297      5300      5303      5304      5297      5300      5303      5305
      5297      5300      5303      5306      5298      5297      5300      5301
      5298      5297      5300      5302      5298      5297      5300      5303
      5299      5297      5300      5301      5299      5297      5300      5302
      5299      5297      5300      5303      5300      5303      5306      5307
      5300      5303      5306      5308      5300      5303      5306      5309
      5301      5300      5303      5304      5301      5300      5303      5305
      5301      5300      5303      5306      5302      5300      5303      5304
      5302      5300      5303      5305      5302      5300      5303      5306
      5303      5306      5309      5310      5303      5306      5309      5311
      5303      5306      5309      5312      5304      5303      5306      5307
      5304      5303      5306      5308      5304      5303      5306      5309
      5305      5303      5306      5307      5305      5303      5306      5308
      5305      5303      5306      5309      5307      5306      5309      5310
      5307      5306      5309      5311      5307      5306      5309      5312
      5308      5306      5309      5310      5308      5306      5309      5311
      5308      5306      5309      5312      5313      5316      5319      5320
      5313      5316      5319      5321      5313      5316      5319      5322
      5314      5313      5316      5317      5314      5313      5316      5318
      5314      5313      5316      5319      5315      5313      5316      5317
      5315      5313      5316      5318      5315      5313      5316      5319
      5316      5319      5322      5323      5316      5319      5322      5324
      5316      5319      5322      5325      5317      5316      5319      5320
      5317      5316      5319      5321      5317      5316      5319      5322
      5318      5316      5319      5320      5318      5316      5319      5321
      5318      5316      5319      5322      5319      5322      5325      5326
      5319      5322      5325      5327      5319      5322      5325      5328
      5320      5319      5322      5323      5320      5319      5322      5324
      5320      5319      5322      5325      5321      5319      5322      5323
      5321      5319      5322      5324      5321      5319      5322      5325
      5322      5325      5328      5329      5322      5325      5328      5330
      5322      5325      5328      5331      5323      5322      5325      5326
      5323      5322      5325      5327      5323      5322      5325      5328
      5324      5322      5325      5326      5324      5322      5325      5327
      5324      5322      5325      5328      5325      5328      5331      5332
      5325      5328      5331      5333      5326      5325      5328      5329
      5326      5325      5328      5330      5326      5325      5328      5331
      5327      5325      5328      5329      5327      5325      5328      5330
      5327      5325      5328      5331      5328      5331      5333      5334
      5328      5331      5333      5335      5329      5328      5331      5332
      5329      5328      5331      5333      5330      5328      5331      5332
      5330      5328      5331      5333      5331      5333      5335      5336
      5331      5333      5335      5337      5331      5333      5335      5338
      5332      5331      5333      5334      5332      5331      5333      5335
      5333      5335      5338      5339      5333      5335      5338      5340
      5333      5335      5338      5341      5334      5333      5335      5336
      5334      5333      5335      5337      5334      5333      5335      5338
      5335      5338      5341      5342      5335      5338      5341      5343
      5335      5338      5341      5344      5336      5335      5338      5339
      5336      5335      5338      5340      5336      5335      5338      5341
      5337      5335      5338      5339      5337      5335      5338      5340
      5337      5335      5338      5341      5338      5341      5344      5345
      5338      5341      5344      5346      5338      5341      5344      5347
      5339      5338      5341      5342      5339      5338      5341      5343
      5339      5338      5341      5344      5340      5338      5341      5342
      5340      5338      5341      5343      5340      5338      5341      5344
      5341      5344      5347      5348      5341      5344      5347      5349
      5341      5344      5347      5350      5342      5341      5344      5345
      5342      5341      5344      5346      5342      5341      5344      5347
      5343      5341      5344      5345      5343      5341      5344      5346
      5343      5341      5344      5347      5344      5347      5350      5351
      5344      5347      5350      5352      5344      5347      5350      5353
      5345      5344      5347      5348      5345      5344      5347      5349
      5345      5344      5347      5350      5346      5344      5347      5348
      5346      5344      5347      5349      5346      5344      5347      5350
      5347      5350      5353      5354      5347      5350      5353      5355
      5347      5350      5353      5356      5348      5347      5350      5351
      5348      5347      5350      5352      5348      5347      5350      5353
      5349      5347      5350      5351      5349      5347      5350      5352
      5349      5347      5350      5353      5350      5353      5356      5357
      5350      5353      5356      5358      5350      5353      5356      5359
      5351      5350      5353      5354      5351      5350      5353      5355
      5351      5350      5353      5356      5352      5350      5353      5354
      5352      5350      5353      5355      5352      5350      5353      5356
      5354      5353      5356      5357      5354      5353      5356      5358
      5354      5353      5356      5359      5355      5353      5356      5357
      5355      5353      5356      5358      5355      5353      5356      5359
      5360      5364      5367      5368      5360      5364      5367      5369
      5360      5364      5367      5374      5361      5360      5364      5365
      5361      5360      5364      5366      5361      5360      5364      5367
      5362      5360      5364      5365      5362      5360      5364      5366
      5362      5360      5364      5367      5363      5360      5364      5365
      5363      5360      5364      5366      5363      5360      5364      5367
      5364      5367      5374      5370      5365      5364      5367      5368
      5365      5364      5367      5369      5365      5364      5367      5374
      5366      5364      5367      5368      5366      5364      5367      5369
      5366      5364      5367      5374      5367      5374      5370      5371
      5367      5374      5370      5372      5367      5374      5370      5373
      5368      5367      5374      5370      5369      5367      5374      5370
      5370      5373      5375      5376      5370      5373      5375      5377
      5370      5373      5375      5378      5371      5370      5373      5375
      5372      5370      5373      5375      5373      5375      5378      5379
      5373      5375      5378      5380      5373      5375      5378      5386
      5374      5370      5373      5375      5375      5378      5380      5381
      5375      5378      5386      5387      5375      5378      5386      5388
      5375      5378      5386      5389      5376      5375      5378      5379
      5376      5375      5378      5380      5376      5375      5378      5386
      5377      5375      5378      5379      5377      5375      5378      5380
      5377      5375      5378      5386      5378      5380      5381      5382
      5378      5380      5381      5383      5378      5386      5389      5390
      5379      5378      5380      5381      5379      5378      5386      5387
      5379      5378      5386      5388      5379      5378      5386      5389
      5380      5378      5386      5387      5380      5378      5386      5388
      5380      5378      5386      5389      5380      5381      5383      5384
      5380      5381      5383      5385      5380      5381      5383      5395
      5381      5380      5378      5386      5381      5383      5395      5396
      5381      5383      5395      5397      5381      5383      5395      5398
      5382      5381      5383      5384      5382      5381      5383      5385
      5382      5381      5383      5395      5383      5395      5398      5399
      5383      5395      5398      5400      5383      5395      5398      5401
      5384      5383      5395      5396      5384      5383      5395      5397
      5384      5383      5395      5398      5385      5383      5395      5396
      5385      5383      5395      5397      5385      5383      5395      5398
      5386      5389      5390      5391      5386      5389      5390      5392
      5387      5386      5389      5390      5388      5386      5389      5390
      5389      5390      5392      5393      5389      5390      5392      5394
      5389      5390      5392      5442      5390      5392      5442      5443
      5390      5392      5442      5444      5390      5392      5442      5445
      5391      5390      5392      5393      5391      5390      5392      5394
      5391      5390      5392      5442      5392      5442      5445      5446
      5392      5442      5445      5447      5392      5442      5445      5448
      5393      5392      5442      5443      5393      5392      5442      5444
      5393      5392      5442      5445      5394      5392      5442      5443
      5394      5392      5442      5444      5394      5392      5442      5445
      5395      5398      5401      5402      5395      5398      5401      5403
      5395      5398      5401      5404      5396      5395      5398      5399
      5396      5395      5398      5400      5396      5395      5398      5401
      5397      5395      5398      5399      5397      5395      5398      5400
      5397      5395      5398      5401      5398      5401      5404      5405
      5398      5401      5404      5406      5398      5401      5404      5407
      5399      5398      5401      5402      5399      5398      5401      5403
      5399      5398      5401      5404      5400      5398      5401      5402
      5400      5398      5401      5403      5400      5398      5401      5404
      5401      5404      5407      5408      5401      5404      5407      5409
      5401      5404      5407      5410      5402      5401      5404      5405
      5402      5401      5404      5406      5402      5401      5404      5407
      5403      5401      5404      5405      5403      5401      5404      5406
      5403      5401      5404      5407      5404      5407      5410      5411
      5404      5407      5410      5412      5404      5407      5410      5413
      5405      5404      5407      5408      5405      5404      5407      5409
      5405      5404      5407      5410      5406      5404      5407      5408
      5406      5404      5407      5409      5406      5404      5407      5410
      5407      5410      5413      5414      5407      5410      5413      5415
      5408      5407      5410      5411      5408      5407      5410      5412
      5408      5407      5410      5413      5409      5407      5410      5411
      5409      5407      5410      5412      5409      5407      5410      5413
      5410      5413      5415      5416      5410      5413      5415      5417
      5411      5410      5413      5414      5411      5410      5413      5415
      5412      5410      5413      5414      5412      5410      5413      5415
      5413      5415      5417      5418      5413      5415      5417      5419
      5413      5415      5417      5420      5414      5413      5415      5416
      5414      5413      5415      5417      5415      5417      5420      5421
      5415      5417      5420      5422      5415      5417      5420      5423
      5416      5415      5417      5418      5416      5415      5417      5419
      5416      5415      5417      5420      5417      5420      5423      5424
      5417      5420      5423      5425      5417      5420      5423      5426
      5418      5417      5420      5421      5418      5417      5420      5422
      5418      5417      5420      5423      5419      5417      5420      5421
      5419      5417      5420      5422      5419      5417      5420      5423
      5420      5423      5426      5427      5420      5423      5426      5428
      5420      5423      5426      5429      5421      5420      5423      5424
      5421      5420      5423      5425      5421      5420      5423      5426
      5422      5420      5423      5424      5422      5420      5423      5425
      5422      5420      5423      5426      5423      5426      5429      5430
      5423      5426      5429      5431      5423      5426      5429      5432
      5424      5423      5426      5427      5424      5423      5426      5428
      5424      5423      5426      5429      5425      5423      5426      5427
      5425      5423      5426      5428      5425      5423      5426      5429
      5426      5429      5432      5433      5426      5429      5432      5434
      5426      5429      5432      5435      5427      5426      5429      5430
      5427      5426      5429      5431      5427      5426      5429      5432
      5428      5426      5429      5430      5428      5426      5429      5431
      5428      5426      5429      5432      5429      5432      5435      5436
      5429      5432      5435      5437      5429      5432      5435      5438
      5430      5429      5432      5433      5430      5429      5432      5434
      5430      5429      5432      5435      5431      5429      5432      5433
      5431      5429      5432      5434      5431      5429      5432      5435
      5432      5435      5438      5439      5432      5435      5438      5440
      5432      5435      5438      5441      5433      5432      5435      5436
      5433      5432      5435      5437      5433      5432      5435      5438
      5434      5432      5435      5436      5434      5432      5435      5437
      5434      5432      5435      5438      5436      5435      5438      5439
      5436      5435      5438      5440      5436      5435      5438      5441
      5437      5435      5438      5439      5437      5435      5438      5440
      5437      5435      5438      5441      5442      5445      5448      5449
      5442      5445      5448      5450      5442      5445      5448      5451
      5443      5442      5445      5446      5443      5442      5445      5447
      5443      5442      5445      5448      5444      5442      5445      5446
      5444      5442      5445      5447      5444      5442      5445      5448
      5445      5448      5451      5452      5445      5448      5451      5453
      5445      5448      5451      5454      5446      5445      5448      5449
      5446      5445      5448      5450      5446      5445      5448      5451
      5447      5445      5448      5449      5447      5445      5448      5450
      5447      5445      5448      5451      5448      5451      5454      5455
      5448      5451      5454      5456      5448      5451      5454      5457
      5449      5448      5451      5452      5449      5448      5451      5453
      5449      5448      5451      5454      5450      5448      5451      5452
      5450      5448      5451      5453      5450      5448      5451      5454
      5451      5454      5457      5458      5451      5454      5457      5459
      5451      5454      5457      5460      5452      5451      5454      5455
      5452      5451      5454      5456      5452      5451      5454      5457
      5453      5451      5454      5455      5453      5451      5454      5456
      5453      5451      5454      5457      5454      5457      5460      5461
      5454      5457      5460      5462      5455      5454      5457      5458
      5455      5454      5457      5459      5455      5454      5457      5460
      5456      5454      5457      5458      5456      5454      5457      5459
      5456      5454      5457      5460      5457      5460      5462      5463
      5457      5460      5462      5464      5458      5457      5460      5461
      5458      5457      5460      5462      5459      5457      5460      5461
      5459      5457      5460      5462      5460      5462      5464      5465
      5460      5462      5464      5466      5460      5462      5464      5467
      5461      5460      5462      5463      5461      5460      5462      5464
      5462      5464      5467      5468      5462      5464      5467      5469
      5462      5464      5467      5470      5463      5462      5464      5465
      5463      5462      5464      5466      5463      5462      5464      5467
      5464      5467      5470      5471      5464      5467      5470      5472
      5464      5467      5470      5473      5465      5464      5467      5468
      5465      5464      5467      5469      5465      5464      5467      5470
      5466      5464      5467      5468      5466      5464      5467      5469
      5466      5464      5467      5470      5467      5470      5473      5474
      5467      5470      5473      5475      5467      5470      5473      5476
      5468      5467      5470      5471      5468      5467      5470      5472
      5468      5467      5470      5473      5469      5467      5470      5471
      5469      5467      5470      5472      5469      5467      5470      5473
      5470      5473      5476      5477      5470      5473      5476      5478
      5470      5473      5476      5479      5471      5470      5473      5474
      5471      5470      5473      5475      5471      5470      5473      5476
      5472      5470      5473      5474      5472      5470      5473      5475
      5472      5470      5473      5476      5473      5476      5479      5480
      5473      5476      5479      5481      5473      5476      5479      5482
      5474      5473      5476      5477      5474      5473      5476      5478
      5474      5473      5476      5479      5475      5473      5476      5477
      5475      5473      5476      5478      5475      5473      5476      5479
      5476      5479      5482      5483      5476      5479      5482      5484
      5476      5479      5482      5485      5477      5476      5479      5480
      5477      5476      5479      5481      5477      5476      5479      5482
      5478      5476      5479      5480      5478      5476      5479      5481
      5478      5476      5479      5482      5479      5482      5485      5486
      5479      5482      5485      5487      5479      5482      5485      5488
      5480      5479      5482      5483      5480      5479      5482      5484
      5480      5479      5482      5485      5481      5479      5482      5483
      5481      5479      5482      5484      5481      5479      5482      5485
      5483      5482      5485      5486      5483      5482      5485      5487
      5483      5482      5485      5488      5484      5482      5485      5486
      5484      5482      5485      5487      5484      5482      5485      5488
      5489      5490      5505      5506      5489      5490      5505      5507
      5489      5490      5505      5511      5490      5489      5493      5494
      5490      5489      5493      5495      5490      5489      5493      5496
      5490      5489      5497      5498      5490      5489      5497      5499
      5490      5489      5497      5500      5490      5489      5501      5502
      5490      5489      5501      5503      5490      5489      5501      5504
      5490      5505      5511      5508      5491      5490      5489      5493
      5491      5490      5489      5497      5491      5490      5489      5501
      5491      5490      5505      5506      5491      5490      5505      5507
      5491      5490      5505      5511      5492      5490      5489      5493
      5492      5490      5489      5497      5492      5490      5489      5501
      5492      5490      5505      5506      5492      5490      5505      5507
      5492      5490      5505      5511      5493      5489      5490      5505
      5493      5489      5497      5498      5493      5489      5497      5499
      5493      5489      5497      5500      5493      5489      5501      5502
      5493      5489      5501      5503      5493      5489      5501      5504
      5494      5493      5489      5497      5494      5493      5489      5501
      5495      5493      5489      5497      5495      5493      5489      5501
      5496      5493      5489      5497      5496      5493      5489      5501
      5497      5489      5490      5505      5497      5489      5501      5502
      5497      5489      5501      5503      5497      5489      5501      5504
      5498      5497      5489      5501      5499      5497      5489      5501
      5500      5497      5489      5501      5501      5489      5490      5505
      5505      5511      5508      5509      5505      5511      5508      5510
      5505      5511      5508      5512      5506      5505      5511      5508
      5507      5505      5511      5508      5508      5512      5513      5514
      5508      5512      5513      5515      5508      5512      5513      5516
      5509      5508      5512      5513      5510      5508      5512      5513
      5511      5508      5512      5513      5512      5513      5516      5517
      5512      5513      5516      5518      5512      5513      5516      5524
      5513      5516      5518      5519      5513      5516      5524      5525
      5513      5516      5524      5526      5513      5516      5524      5527
      5514      5513      5516      5517      5514      5513      5516      5518
      5514      5513      5516      5524      5515      5513      5516      5517
      5515      5513      5516      5518      5515      5513      5516      5524
      5516      5518      5519      5520      5516      5518      5519      5521
      5516      5524      5527      5528      5517      5516      5518      5519
      5517      5516      5524      5525      5517      5516      5524      5526
      5517      5516      5524      5527      5518      5516      5524      5525
      5518      5516      5524      5526      5518      5516      5524      5527
      5518      5519      5521      5522      5518      5519      5521      5523
      5518      5519      5521      5533      5519      5518      5516      5524
      5519      5521      5533      5534      5519      5521      5533      5535
      5519      5521      5533      5536      5520      5519      5521      5522
      5520      5519      5521      5523      5520      5519      5521      5533
      5521      5533      5536      5537      5521      5533      5536      5538
      5521      5533      5536      5539      5522      5521      5533      5534
      5522      5521      5533      5535      5522      5521      5533      5536
      5523      5521      5533      5534      5523      5521      5533      5535
      5523      5521      5533      5536      5524      5527      5528      5529
      5524      5527      5528      5530      5525      5524      5527      5528
      5526      5524      5527      5528      5527      5528      5530      5531
      5527      5528      5530      5532      5527      5528      5530      5580
      5528      5530      5580      5581      5528      5530      5580      5582
      5528      5530      5580      5583      5529      5528      5530      5531
      5529      5528      5530      5532      5529      5528      5530      5580
      5530      5580      5583      5584      5530      5580      5583      5585
      5530      5580      5583      5586      5531      5530      5580      5581
      5531      5530      5580      5582      5531      5530      5580      5583
      5532      5530      5580      5581      5532      5530      5580      5582
      5532      5530      5580      5583      5533      5536      5539      5540
      5533      5536      5539      5541      5533      5536      5539      5542
      5534      5533      5536      5537      5534      5533      5536      5538
      5534      5533      5536      5539      5535      5533      5536      5537
      5535      5533      5536      5538      5535      5533      5536      5539
      5536      5539      5542      5543      5536      5539      5542      5544
      5536      5539      5542      5545      5537      5536      5539      5540
      5537      5536      5539      5541      5537      5536      5539      5542
      5538      5536      5539      5540      5538      5536      5539      5541
      5538      5536      5539      5542      5539      5542      5545      5546
      5539      5542      5545      5547      5539      5542      5545      5548
      5540      5539      5542      5543      5540      5539      5542      5544
      5540      5539      5542      5545      5541      5539      5542      5543
      5541      5539      5542      5544      5541      5539      5542      5545
      5542      5545      5548      5549      5542      5545      5548      5550
      5542      5545      5548      5551      5543      5542      5545      5546
      5543      5542      5545      5547      5543      5542      5545      5548
      5544      5542      5545      5546      5544      5542      5545      5547
      5544      5542      5545      5548      5545      5548      5551      5552
      5545      5548      5551      5553      5546      5545      5548      5549
      5546      5545      5548      5550      5546      5545      5548      5551
      5547      5545      5548      5549      5547      5545      5548      5550
      5547      5545      5548      5551      5548      5551      5553      5554
      5548      5551      5553      5555      5549      5548      5551      5552
      5549      5548      5551      5553      5550      5548      5551      5552
      5550      5548      5551      5553      5551      5553      5555      5556
      5551      5553      5555      5557      5551      5553      5555      5558
      5552      5551      5553      5554      5552      5551      5553      5555
      5553      5555      5558      5559      5553      5555      5558      5560
      5553      5555      5558      5561      5554      5553      5555      5556
      5554      5553      5555      5557      5554      5553      5555      5558
      5555      5558      5561      5562      5555      5558      5561      5563
      5555      5558      5561      5564      5556      5555      5558      5559
      5556      5555      5558      5560      5556      5555      5558      5561
      5557      5555      5558      5559      5557      5555      5558      5560
      5557      5555      5558      5561      5558      5561      5564      5565
      5558      5561      5564      5566      5558      5561      5564      5567
      5559      5558      5561      5562      5559      5558      5561      5563
      5559      5558      5561      5564      5560      5558      5561      5562
      5560      5558      5561      5563      5560      5558      5561      5564
      5561      5564      5567      5568      5561      5564      5567      5569
      5561      5564      5567      5570      5562      5561      5564      5565
      5562      5561      5564      5566      5562      5561      5564      5567
      5563      5561      5564      5565      5563      5561      5564      5566
      5563      5561      5564      5567      5564      5567      5570      5571
      5564      5567      5570      5572      5564      5567      5570      5573
      5565      5564      5567      5568      5565      5564      5567      5569
      5565      5564      5567      5570      5566      5564      5567      5568
      5566      5564      5567      5569      5566      5564      5567      5570
      5567      5570      5573      5574      5567      5570      5573      5575
      5567      5570      5573      5576      5568      5567      5570      5571
      5568      5567      5570      5572      5568      5567      5570      5573
      5569      5567      5570      5571      5569      5567      5570      5572
      5569      5567      5570      5573      5570      5573      5576      5577
      5570      5573      5576      5578      5570      5573      5576      5579
      5571      5570      5573      5574      5571      5570      5573      5575
      5571      5570      5573      5576      5572      5570      5573      5574
      5572      5570      5573      5575      5572      5570      5573      5576
      5574      5573      5576      5577      5574      5573      5576      5578
      5574      5573      5576      5579      5575      5573      5576      5577
      5575      5573      5576      5578      5575      5573      5576      5579
      5580      5583      5586      5587      5580      5583      5586      5588
      5580      5583      5586      5589      5581      5580      5583      5584
      5581      5580      5583      5585      5581      5580      5583      5586
      5582      5580      5583      5584      5582      5580      5583      5585
      5582      5580      5583      5586      5583      5586      5589      5590
      5583      5586      5589      5591      5583      5586      5589      5592
      5584      5583      5586      5587      5584      5583      5586      5588
      5584      5583      5586      5589      5585      5583      5586      5587
      5585      5583      5586      5588      5585      5583      5586      5589
      5586      5589      5592      5593      5586      5589      5592      5594
      5586      5589      5592      5595      5587      5586      5589      5590
      5587      5586      5589      5591      5587      5586      5589      5592
      5588      5586      5589      5590      5588      5586      5589      5591
      5588      5586      5589      5592      5589      5592      5595      5596
      5589      5592      5595      5597      5589      5592      5595      5598
      5590      5589      5592      5593      5590      5589      5592      5594
      5590      5589      5592      5595      5591      5589      5592      5593
      5591      5589      5592      5594      5591      5589      5592      5595
      5592      5595      5598      5599      5592      5595      5598      5600
      5593      5592      5595      5596      5593      5592      5595      5597
      5593      5592      5595      5598      5594      5592      5595      5596
      5594      5592      5595      5597      5594      5592      5595      5598
      5595      5598      5600      5601      5595      5598      5600      5602
      5596      5595      5598      5599      5596      5595      5598      5600
      5597      5595      5598      5599      5597      5595      5598      5600
      5598      5600      5602      5603      5598      5600      5602      5604
      5598      5600      5602      5605      5599      5598      5600      5601
      5599      5598      5600      5602      5600      5602      5605      5606
      5600      5602      5605      5607      5600      5602      5605      5608
      5601      5600      5602      5603      5601      5600      5602      5604
      5601      5600      5602      5605      5602      5605      5608      5609
      5602      5605      5608      5610      5602      5605      5608      5611
      5603      5602      5605      5606      5603      5602      5605      5607
      5603      5602      5605      5608      5604      5602      5605      5606
      5604      5602      5605      5607      5604      5602      5605      5608
      5605      5608      5611      5612      5605      5608      5611      5613
      5605      5608      5611      5614      5606      5605      5608      5609
      5606      5605      5608      5610      5606      5605      5608      5611
      5607      5605      5608      5609      5607      5605      5608      5610
      5607      5605      5608      5611      5608      5611      5614      5615
      5608      5611      5614      5616      5608      5611      5614      5617
      5609      5608      5611      5612      5609      5608      5611      5613
      5609      5608      5611      5614      5610      5608      5611      5612
      5610      5608      5611      5613      5610      5608      5611      5614
      5611      5614      5617      5618      5611      5614      5617      5619
      5611      5614      5617      5620      5612      5611      5614      5615
      5612      5611      5614      5616      5612      5611      5614      5617
      5613      5611      5614      5615      5613      5611      5614      5616
      5613      5611      5614      5617      5614      5617      5620      5621
      5614      5617      5620      5622      5614      5617      5620      5623
      5615      5614      5617      5618      5615      5614      5617      5619
      5615      5614      5617      5620      5616      5614      5617      5618
      5616      5614      5617      5619      5616      5614      5617      5620
      5617      5620      5623      5624      5617      5620      5623      5625
      5617      5620      5623      5626      5618      5617      5620      5621
      5618      5617      5620      5622      5618      5617      5620      5623
      5619      5617      5620      5621      5619      5617      5620      5622
      5619      5617      5620      5623      5621      5620      5623      5624
      5621      5620      5623      5625      5621      5620      5623      5626
      5622      5620      5623      5624      5622      5620      5623      5625
      5622      5620      5623      5626      5627      5631      5634      5635
      5627      5631      5634      5636      5627      5631      5634      5641
      5628      5627      5631      5632      5628      5627      5631      5633
      5628      5627      5631      5634      5629      5627      5631      5632
      5629      5627      5631      5633      5629      5627      5631      5634
      5630      5627      5631      5632      5630      5627      5631      5633
      5630      5627      5631      5634      5631      5634      5641      5637
      5632      5631      5634      5635      5632      5631      5634      5636
      5632      5631      5634      5641      5633      5631      5634      5635
      5633      5631      5634      5636      5633      5631      5634      5641
      5634      5641      5637      5638      5634      5641      5637      5639
      5634      5641      5637      5640      5635      5634      5641      5637
      5636      5634      5641      5637      5637      5640      5642      5643
      5637      5640      5642      5644      5637      5640      5642      5645
      5638      5637      5640      5642      5639      5637      5640      5642
      5640      5642      5645      5646      5640      5642      5645      5647
      5640      5642      5645      5653      5641      5637      5640      5642
      5642      5645      5647      5648      5642      5645      5653      5654
      5642      5645      5653      5655      5642      5645      5653      5656
      5643      5642      5645      5646      5643      5642      5645      5647
      5643      5642      5645      5653      5644      5642      5645      5646
      5644      5642      5645      5647      5644      5642      5645      5653
      5645      5647      5648      5649      5645      5647      5648      5650
      5645      5653      5656      5657      5646      5645      5647      5648
      5646      5645      5653      5654      5646      5645      5653      5655
      5646      5645      5653      5656      5647      5645      5653      5654
      5647      5645      5653      5655      5647      5645      5653      5656
      5647      5648      5650      5651      5647      5648      5650      5652
      5647      5648      5650      5662      5648      5647      5645      5653
      5648      5650      5662      5663      5648      5650      5662      5664
      5648      5650      5662      5665      5649      5648      5650      5651
      5649      5648      5650      5652      5649      5648      5650      5662
      5650      5662      5665      5666      5650      5662      5665      5667
      5650      5662      5665      5668      5651      5650      5662      5663
      5651      5650      5662      5664      5651      5650      5662      5665
      5652      5650      5662      5663      5652      5650      5662      5664
      5652      5650      5662      5665      5653      5656      5657      5658
      5653      5656      5657      5659      5654      5653      5656      5657
      5655      5653      5656      5657      5656      5657      5659      5660
      5656      5657      5659      5661      5656      5657      5659      5709
      5657      5659      5709      5710      5657      5659      5709      5711
      5657      5659      5709      5712      5658      5657      5659      5660
      5658      5657      5659      5661      5658      5657      5659      5709
      5659      5709      5712      5713      5659      5709      5712      5714
      5659      5709      5712      5715      5660      5659      5709      5710
      5660      5659      5709      5711      5660      5659      5709      5712
      5661      5659      5709      5710      5661      5659      5709      5711
      5661      5659      5709      5712      5662      5665      5668      5669
      5662      5665      5668      5670      5662      5665      5668      5671
      5663      5662      5665      5666      5663      5662      5665      5667
      5663      5662      5665      5668      5664      5662      5665      5666
      5664      5662      5665      5667      5664      5662      5665      5668
      5665      5668      5671      5672      5665      5668      5671      5673
      5665      5668      5671      5674      5666      5665      5668      5669
      5666      5665      5668      5670      5666      5665      5668      5671
      5667      5665      5668      5669      5667      5665      5668      5670
      5667      5665      5668      5671      5668      5671      5674      5675
      5668      5671      5674      5676      5668      5671      5674      5677
      5669      5668      5671      5672      5669      5668      5671      5673
      5669      5668      5671      5674      5670      5668      5671      5672
      5670      5668      5671      5673      5670      5668      5671      5674
      5671      5674      5677      5678      5671      5674      5677      5679
      5671      5674      5677      5680      5672      5671      5674      5675
      5672      5671      5674      5676      5672      5671      5674      5677
      5673      5671      5674      5675      5673      5671      5674      5676
      5673      5671      5674      5677      5674      5677      5680      5681
      5674      5677      5680      5682      5675      5674      5677      5678
      5675      5674      5677      5679      5675      5674      5677      5680
      5676      5674      5677      5678      5676      5674      5677      5679
      5676      5674      5677      5680      5677      5680      5682      5683
      5677      5680      5682      5684      5678      5677      5680      5681
      5678      5677      5680      5682      5679      5677      5680      5681
      5679      5677      5680      5682      5680      5682      5684      5685
      5680      5682      5684      5686      5680      5682      5684      5687
      5681      5680      5682      5683      5681      5680      5682      5684
      5682      5684      5687      5688      5682      5684      5687      5689
      5682      5684      5687      5690      5683      5682      5684      5685
      5683      5682      5684      5686      5683      5682      5684      5687
      5684      5687      5690      5691      5684      5687      5690      5692
      5684      5687      5690      5693      5685      5684      5687      5688
      5685      5684      5687      5689      5685      5684      5687      5690
      5686      5684      5687      5688      5686      5684      5687      5689
      5686      5684      5687      5690      5687      5690      5693      5694
      5687      5690      5693      5695      5687      5690      5693      5696
      5688      5687      5690      5691      5688      5687      5690      5692
      5688      5687      5690      5693      5689      5687      5690      5691
      5689      5687      5690      5692      5689      5687      5690      5693
      5690      5693      5696      5697      5690      5693      5696      5698
      5690      5693      5696      5699      5691      5690      5693      5694
      5691      5690      5693      5695      5691      5690      5693      5696
      5692      5690      5693      5694      5692      5690      5693      5695
      5692      5690      5693      5696      5693      5696      5699      5700
      5693      5696      5699      5701      5693      5696      5699      5702
      5694      5693      5696      5697      5694      5693      5696      5698
      5694      5693      5696      5699      5695      5693      5696      5697
      5695      5693      5696      5698      5695      5693      5696      5699
      5696      5699      5702      5703      5696      5699      5702      5704
      5696      5699      5702      5705      5697      5696      5699      5700
      5697      5696      5699      5701      5697      5696      5699      5702
      5698      5696      5699      5700      5698      5696      5699      5701
      5698      5696      5699      5702      5699      5702      5705      5706
      5699      5702      5705      5707      5699      5702      5705      5708
      5700      5699      5702      5703      5700      5699      5702      5704
      5700      5699      5702      5705      5701      5699      5702      5703
      5701      5699      5702      5704      5701      5699      5702      5705
      5703      5702      5705      5706      5703      5702      5705      5707
      5703      5702      5705      5708      5704      5702      5705      5706
      5704      5702      5705      5707      5704      5702      5705      5708
      5709      5712      5715      5716      5709      5712      5715      5717
      5709      5712      5715      5718      5710      5709      5712      5713
      5710      5709      5712      5714      5710      5709      5712      5715
      5711      5709      5712      5713      5711      5709      5712      5714
      5711      5709      5712      5715      5712      5715      5718      5719
      5712      5715      5718      5720      5712      5715      5718      5721
      5713      5712      5715      5716      5713      5712      5715      5717
      5713      5712      5715      5718      5714      5712      5715      5716
      5714      5712      5715      5717      5714      5712      5715      5718
      5715      5718      5721      5722      5715      5718      5721      5723
      5715      5718      5721      5724      5716      5715      5718      5719
      5716      5715      5718      5720      5716      5715      5718      5721
      5717      5715      5718      5719      5717      5715      5718      5720
      5717      5715      5718      5721      5718      5721      5724      5725
      5718      5721      5724      5726      5718      5721      5724      5727
      5719      5718      5721      5722      5719      5718      5721      5723
      5719      5718      5721      5724      5720      5718      5721      5722
      5720      5718      5721      5723      5720      5718      5721      5724
      5721      5724      5727      5728      5721      5724      5727      5729
      5722      5721      5724      5725      5722      5721      5724      5726
      5722      5721      5724      5727      5723      5721      5724      5725
      5723      5721      5724      5726      5723      5721      5724      5727
      5724      5727      5729      5730      5724      5727      5729      5731
      5725      5724      5727      5728      5725      5724      5727      5729
      5726      5724      5727      5728      5726      5724      5727      5729
      5727      5729      5731      5732      5727      5729      5731      5733
      5727      5729      5731      5734      5728      5727      5729      5730
      5728      5727      5729      5731      5729      5731      5734      5735
      5729      5731      5734      5736      5729      5731      5734      5737
      5730      5729      5731      5732      5730      5729      5731      5733
      5730      5729      5731      5734      5731      5734      5737      5738
      5731      5734      5737      5739      5731      5734      5737      5740
      5732      5731      5734      5735      5732      5731      5734      5736
      5732      5731      5734      5737      5733      5731      5734      5735
      5733      5731      5734      5736      5733      5731      5734      5737
      5734      5737      5740      5741      5734      5737      5740      5742
      5734      5737      5740      5743      5735      5734      5737      5738
      5735      5734      5737      5739      5735      5734      5737      5740
      5736      5734      5737      5738      5736      5734      5737      5739
      5736      5734      5737      5740      5737      5740      5743      5744
      5737      5740      5743      5745      5737      5740      5743      5746
      5738      5737      5740      5741      5738      5737      5740      5742
      5738      5737      5740      5743      5739      5737      5740      5741
      5739      5737      5740      5742      5739      5737      5740      5743
      5740      5743      5746      5747      5740      5743      5746      5748
      5740      5743      5746      5749      5741      5740      5743      5744
      5741      5740      5743      5745      5741      5740      5743      5746
      5742      5740      5743      5744      5742      5740      5743      5745
      5742      5740      5743      5746      5743      5746      5749      5750
      5743      5746      5749      5751      5743      5746      5749      5752
      5744      5743      5746      5747      5744      5743      5746      5748
      5744      5743      5746      5749      5745      5743      5746      5747
      5745      5743      5746      5748      5745      5743      5746      5749
      5746      5749      5752      5753      5746      5749      5752      5754
      5746      5749      5752      5755      5747      5746      5749      5750
      5747      5746      5749      5751      5747      5746      5749      5752
      5748      5746      5749      5750      5748      5746      5749      5751
      5748      5746      5749      5752      5750      5749      5752      5753
      5750      5749      5752      5754      5750      5749      5752      5755
      5751      5749      5752      5753      5751      5749      5752      5754
      5751      5749      5752      5755      5756      5757      5772      5773
      5756      5757      5772      5774      5756      5757      5772      5778
      5757      5756      5760      5761      5757      5756      5760      5762
      5757      5756      5760      5763      5757      5756      5764      5765
      5757      5756      5764      5766      5757      5756      5764      5767
      5757      5756      5768      5769      5757      5756      5768      5770
      5757      5756      5768      5771      5757      5772      5778      5775
      5758      5757      5756      5760      5758      5757      5756      5764
      5758      5757      5756      5768      5758      5757      5772      5773
      5758      5757      5772      5774      5758      5757      5772      5778
      5759      5757      5756      5760      5759      5757      5756      5764
      5759      5757      5756      5768      5759      5757      5772      5773
      5759      5757      5772      5774      5759      5757      5772      5778
      5760      5756      5757      5772      5760      5756      5764      5765
      5760      5756      5764      5766      5760      5756      5764      5767
      5760      5756      5768      5769      5760      5756      5768      5770
      5760      5756      5768      5771      5761      5760      5756      5764
      5761      5760      5756      5768      5762      5760      5756      5764
      5762      5760      5756      5768      5763      5760      5756      5764
      5763      5760      5756      5768      5764      5756      5757      5772
      5764      5756      5768      5769      5764      5756      5768      5770
      5764      5756      5768      5771      5765      5764      5756      5768
      5766      5764      5756      5768      5767      5764      5756      5768
      5768      5756      5757      5772      5772      5778      5775      5776
      5772      5778      5775      5777      5772      5778      5775      5779
      5773      5772      5778      5775      5774      5772      5778      5775
      5775      5779      5780      5781      5775      5779      5780      5782
      5775      5779      5780      5783      5776      5775      5779      5780
      5777      5775      5779      5780      5778      5775      5779      5780
      5779      5780      5783      5784      5779      5780      5783      5785
      5779      5780      5783      5791      5780      5783      5785      5786
      5780      5783      5791      5792      5780      5783      5791      5793
      5780      5783      5791      5794      5781      5780      5783      5784
      5781      5780      5783      5785      5781      5780      5783      5791
      5782      5780      5783      5784      5782      5780      5783      5785
      5782      5780      5783      5791      5783      5785      5786      5787
      5783      5785      5786      5788      5783      5791      5794      5795
      5784      5783      5785      5786      5784      5783      5791      5792
      5784      5783      5791      5793      5784      5783      5791      5794
      5785      5783      5791      5792      5785      5783      5791      5793
      5785      5783      5791      5794      5785      5786      5788      5789
      5785      5786      5788      5790      5785      5786      5788      5800
      5786      5785      5783      5791      5786      5788      5800      5801
      5786      5788      5800      5802      5786      5788      5800      5803
      5787      5786      5788      5789      5787      5786      5788      5790
      5787      5786      5788      5800      5788      5800      5803      5804
      5788      5800      5803      5805      5788      5800      5803      5806
      5789      5788      5800      5801      5789      5788      5800      5802
      5789      5788      5800      5803      5790      5788      5800      5801
      5790      5788      5800      5802      5790      5788      5800      5803
      5791      5794      5795      5796      5791      5794      5795      5797
      5792      5791      5794      5795      5793      5791      5794      5795
      5794      5795      5797      5798      5794      5795      5797      5799
      5794      5795      5797      5847      5795      5797      5847      5848
      5795      5797      5847      5849      5795      5797      5847      5850
      5796      5795      5797      5798      5796      5795      5797      5799
      5796      5795      5797      5847      5797      5847      5850      5851
      5797      5847      5850      5852      5797      5847      5850      5853
      5798      5797      5847      5848      5798      5797      5847      5849
      5798      5797      5847      5850      5799      5797      5847      5848
      5799      5797      5847      5849      5799      5797      5847      5850
      5800      5803      5806      5807      5800      5803      5806      5808
      5800      5803      5806      5809      5801      5800      5803      5804
      5801      5800      5803      5805      5801      5800      5803      5806
      5802      5800      5803      5804      5802      5800      5803      5805
      5802      5800      5803      5806      5803      5806      5809      5810
      5803      5806      5809      5811      5803      5806      5809      5812
      5804      5803      5806      5807      5804      5803      5806      5808
      5804      5803      5806      5809      5805      5803      5806      5807
      5805      5803      5806      5808      5805      5803      5806      5809
      5806      5809      5812      5813      5806      5809      5812      5814
      5806      5809      5812      5815      5807      5806      5809      5810
      5807      5806      5809      5811      5807      5806      5809      5812
      5808      5806      5809      5810      5808      5806      5809      5811
      5808      5806      5809      5812      5809      5812      5815      5816
      5809      5812      5815      5817      5809      5812      5815      5818
      5810      5809      5812      5813      5810      5809      5812      5814
      5810      5809      5812      5815      5811      5809      5812      5813
      5811      5809      5812      5814      5811      5809      5812      5815
      5812      5815      5818      5819      5812      5815      5818      5820
      5813      5812      5815      5816      5813      5812      5815      5817
      5813      5812      5815      5818      5814      5812      5815      5816
      5814      5812      5815      5817      5814      5812      5815      5818
      5815      5818      5820      5821      5815      5818      5820      5822
      5816      5815      5818      5819      5816      5815      5818      5820
      5817      5815      5818      5819      5817      5815      5818      5820
      5818      5820      5822      5823      5818      5820      5822      5824
      5818      5820      5822      5825      5819      5818      5820      5821
      5819      5818      5820      5822      5820      5822      5825      5826
      5820      5822      5825      5827      5820      5822      5825      5828
      5821      5820      5822      5823      5821      5820      5822      5824
      5821      5820      5822      5825      5822      5825      5828      5829
      5822      5825      5828      5830      5822      5825      5828      5831
      5823      5822      5825      5826      5823      5822      5825      5827
      5823      5822      5825      5828      5824      5822      5825      5826
      5824      5822      5825      5827      5824      5822      5825      5828
      5825      5828      5831      5832      5825      5828      5831      5833
      5825      5828      5831      5834      5826      5825      5828      5829
      5826      5825      5828      5830      5826      5825      5828      5831
      5827      5825      5828      5829      5827      5825      5828      5830
      5827      5825      5828      5831      5828      5831      5834      5835
      5828      5831      5834      5836      5828      5831      5834      5837
      5829      5828      5831      5832      5829      5828      5831      5833
      5829      5828      5831      5834      5830      5828      5831      5832
      5830      5828      5831      5833      5830      5828      5831      5834
      5831      5834      5837      5838      5831      5834      5837      5839
      5831      5834      5837      5840      5832      5831      5834      5835
      5832      5831      5834      5836      5832      5831      5834      5837
      5833      5831      5834      5835      5833      5831      5834      5836
      5833      5831      5834      5837      5834      5837      5840      5841
      5834      5837      5840      5842      5834      5837      5840      5843
      5835      5834      5837      5838      5835      5834      5837      5839
      5835      5834      5837      5840      5836      5834      5837      5838
      5836      5834      5837      5839      5836      5834      5837      5840
      5837      5840      5843      5844      5837      5840      5843      5845
      5837      5840      5843      5846      5838      5837      5840      5841
      5838      5837      5840      5842      5838      5837      5840      5843
      5839      5837      5840      5841      5839      5837      5840      5842
      5839      5837      5840      5843      5841      5840      5843      5844
      5841      5840      5843      5845      5841      5840      5843      5846
      5842      5840      5843      5844      5842      5840      5843      5845
      5842      5840      5843      5846      5847      5850      5853      5854
      5847      5850      5853      5855      5847      5850      5853      5856
      5848      5847      5850      5851      5848      5847      5850      5852
      5848      5847      5850      5853      5849      5847      5850      5851
      5849      5847      5850      5852      5849      5847      5850      5853
      5850      5853      5856      5857      5850      5853      5856      5858
      5850      5853      5856      5859      5851      5850      5853      5854
      5851      5850      5853      5855      5851      5850      5853      5856
      5852      5850      5853      5854      5852      5850      5853      5855
      5852      5850      5853      5856      5853      5856      5859      5860
      5853      5856      5859      5861      5853      5856      5859      5862
      5854      5853      5856      5857      5854      5853      5856      5858
      5854      5853      5856      5859      5855      5853      5856      5857
      5855      5853      5856      5858      5855      5853      5856      5859
      5856      5859      5862      5863      5856      5859      5862      5864
      5856      5859      5862      5865      5857      5856      5859      5860
      5857      5856      5859      5861      5857      5856      5859      5862
      5858      5856      5859      5860      5858      5856      5859      5861
      5858      5856      5859      5862      5859      5862      5865      5866
      5859      5862      5865      5867      5860      5859      5862      5863
      5860      5859      5862      5864      5860      5859      5862      5865
      5861      5859      5862      5863      5861      5859      5862      5864
      5861      5859      5862      5865      5862      5865      5867      5868
      5862      5865      5867      5869      5863      5862      5865      5866
      5863      5862      5865      5867      5864      5862      5865      5866
      5864      5862      5865      5867      5865      5867      5869      5870
      5865      5867      5869      5871      5865      5867      5869      5872
      5866      5865      5867      5868      5866      5865      5867      5869
      5867      5869      5872      5873      5867      5869      5872      5874
      5867      5869      5872      5875      5868      5867      5869      5870
      5868      5867      5869      5871      5868      5867      5869      5872
      5869      5872      5875      5876      5869      5872      5875      5877
      5869      5872      5875      5878      5870      5869      5872      5873
      5870      5869      5872      5874      5870      5869      5872      5875
      5871      5869      5872      5873      5871      5869      5872      5874
      5871      5869      5872      5875      5872      5875      5878      5879
      5872      5875      5878      5880      5872      5875      5878      5881
      5873      5872      5875      5876      5873      5872      5875      5877
      5873      5872      5875      5878      5874      5872      5875      5876
      5874      5872      5875      5877      5874      5872      5875      5878
      5875      5878      5881      5882      5875      5878      5881      5883
      5875      5878      5881      5884      5876      5875      5878      5879
      5876      5875      5878      5880      5876      5875      5878      5881
      5877      5875      5878      5879      5877      5875      5878      5880
      5877      5875      5878      5881      5878      5881      5884      5885
      5878      5881      5884      5886      5878      5881      5884      5887
      5879      5878      5881      5882      5879      5878      5881      5883
      5879      5878      5881      5884      5880      5878      5881      5882
      5880      5878      5881      5883      5880      5878      5881      5884
      5881      5884      5887      5888      5881      5884      5887      5889
      5881      5884      5887      5890      5882      5881      5884      5885
      5882      5881      5884      5886      5882      5881      5884      5887
      5883      5881      5884      5885      5883      5881      5884      5886
      5883      5881      5884      5887      5884      5887      5890      5891
      5884      5887      5890      5892      5884      5887      5890      5893
      5885      5884      5887      5888      5885      5884      5887      5889
      5885      5884      5887      5890      5886      5884      5887      5888
      5886      5884      5887      5889      5886      5884      5887      5890
      5888      5887      5890      5891      5888      5887      5890      5892
      5888      5887      5890      5893      5889      5887      5890      5891
      5889      5887      5890      5892      5889      5887      5890      5893
      5894      5898      5901      5902      5894      5898      5901      5932
      5894      5940      5937      5932      5894      5940      5937      5938
      5894      5940      5937      5939      5895      5894      5896      5897
      5895      5894      5898      5899      5895      5894      5898      5900
      5895      5894      5898      5901      5895      5894      5940      5937
      5895      5894      5940      5941      5895      5894      5940      5942
      5896      5894      5898      5899      5896      5894      5898      5900
      5896      5894      5898      5901      5896      5894      5940      5937
      5896      5894      5940      5941      5896      5894      5940      5942
      5897      5896      5894      5898      5897      5896      5894      5940
      5898      5894      5940      5937      5898      5894      5940      5941
      5898      5894      5940      5942      5898      5901      5902      5903
      5898      5901      5902      5904      5898      5901      5932      5930
      5898      5901      5932      5933      5898      5901      5932      5937
      5899      5898      5894      5940      5899      5898      5901      5902
      5899      5898      5901      5932      5900      5898      5894      5940
      5900      5898      5901      5902      5900      5898      5901      5932
      5901      5898      5894      5940      5901      5902      5904      5905
      5901      5902      5904      5906      5901      5902      5904      5907
      5901      5932      5930      5907      5901      5932      5930      5927
      5901      5932      5930      5931      5901      5932      5933      5934
      5901      5932      5933      5935      5901      5932      5933      5936
      5901      5932      5937      5938      5901      5932      5937      5939
      5901      5932      5937      5940      5902      5901      5932      5930
      5902      5901      5932      5933      5902      5901      5932      5937
      5902      5904      5907      5908      5902      5904      5907      5909
      5902      5904      5907      5930      5903      5902      5901      5932
      5903      5902      5904      5905      5903      5902      5904      5906
      5903      5902      5904      5907      5904      5902      5901      5932
      5904      5907      5909      5910      5904      5907      5909      5911
      5904      5907      5909      5919      5904      5907      5930      5927
      5904      5907      5930      5931      5904      5907      5930      5932
      5905      5904      5907      5908      5905      5904      5907      5909
      5905      5904      5907      5930      5906      5904      5907      5908
      5906      5904      5907      5909      5906      5904      5907      5930
      5907      5909      5911      5912      5907      5909      5911      5913
      5907      5909      5911      5914      5907      5909      5919      5917
      5907      5909      5919      5920      5907      5909      5919      5924
      5907      5930      5927      5924      5907      5930      5927      5928
      5907      5930      5927      5929      5907      5930      5932      5933
      5907      5930      5932      5937      5908      5907      5909      5910
      5908      5907      5909      5911      5908      5907      5909      5919
      5908      5907      5930      5927      5908      5907      5930      5931
      5908      5907      5930      5932      5909      5907      5930      5927
      5909      5907      5930      5931      5909      5907      5930      5932
      5909      5911      5914      5915      5909      5911      5914      5916
      5909      5911      5914      5917      5909      5919      5917      5914
      5909      5919      5917      5918      5909      5919      5917      5943
      5909      5919      5920      5921      5909      5919      5920      5922
      5909      5919      5920      5923      5909      5919      5924      5925
      5909      5919      5924      5926      5909      5919      5924      5927
      5910      5909      5907      5930      5910      5909      5911      5912
      5910      5909      5911      5913      5910      5909      5911      5914
      5910      5909      5919      5917      5910      5909      5919      5920
      5910      5909      5919      5924      5911      5909      5907      5930
      5911      5909      5919      5917      5911      5909      5919      5920
      5911      5909      5919      5924      5911      5914      5917      5918
      5911      5914      5917      5919      5911      5914      5917      5943
      5912      5911      5909      5919      5912      5911      5914      5915
      5912      5911      5914      5916      5912      5911      5914      5917
      5913      5911      5909      5919      5913      5911      5914      5915
      5913      5911      5914      5916      5913      5911      5914      5917
      5914      5911      5909      5919      5914      5917      5919      5920
      5914      5917      5919      5924      5914      5917      5943      5944
      5914      5917      5943      5945      5914      5917      5943      5949
      5915      5914      5917      5918      5915      5914      5917      5919
      5915      5914      5917      5943      5916      5914      5917      5918
      5916      5914      5917      5919      5916      5914      5917      5943
      5917      5919      5920      5921      5917      5919      5920      5922
      5917      5919      5920      5923      5917      5919      5924      5925
      5917      5919      5924      5926      5917      5919      5924      5927
      5917      5943      5945      5946      5917      5943      5945      5947
      5917      5943      5945      5948      5917      5943      5949      5950
      5917      5943      5949      5951      5917      5943      5949      5952
      5918      5917      5919      5920      5918      5917      5919      5924
      5918      5917      5943      5944      5918      5917      5943      5945
      5918      5917      5943      5949      5919      5909      5907      5930
      5919      5917      5943      5944      5919      5917      5943      5945
      5919      5917      5943      5949      5919      5924      5927      5928
      5919      5924      5927      5929      5919      5924      5927      5930
      5920      5919      5917      5943      5920      5919      5924      5925
      5920      5919      5924      5926      5920      5919      5924      5927
      5921      5920      5919      5924      5922      5920      5919      5924
      5923      5920      5919      5924      5924      5919      5917      5943
      5924      5927      5930      5931      5924      5927      5930      5932
      5925      5924      5927      5928      5925      5924      5927      5929
      5925      5924      5927      5930      5926      5924      5927      5928
      5926      5924      5927      5929      5926      5924      5927      5930
      5927      5930      5932      5933      5927      5930      5932      5937
      5928      5927      5930      5931      5928      5927      5930      5932
      5929      5927      5930      5931      5929      5927      5930      5932
      5930      5932      5933      5934      5930      5932      5933      5935
      5930      5932      5933      5936      5930      5932      5937      5938
      5930      5932      5937      5939      5930      5932      5937      5940
      5931      5930      5932      5933      5931      5930      5932      5937
      5932      5937      5940      5941      5932      5937      5940      5942
      5933      5932      5937      5938      5933      5932      5937      5939
      5933      5932      5937      5940      5934      5933      5932      5937
      5935      5933      5932      5937      5936      5933      5932      5937
      5938      5937      5940      5941      5938      5937      5940      5942
      5939      5937      5940      5941      5939      5937      5940      5942
      5943      5949      5952      5953      5943      5949      5952      5954
      5943      5949      5952      5955      5944      5943      5945      5946
      5944      5943      5945      5947      5944      5943      5945      5948
      5944      5943      5949      5950      5944      5943      5949      5951
      5944      5943      5949      5952      5945      5943      5949      5950
      5945      5943      5949      5951      5945      5943      5949      5952
      5946      5945      5943      5949      5947      5945      5943      5949
      5948      5945      5943      5949      5949      5952      5955      5956
      5949      5952      5955      5957      5949      5952      5955      5958
      5950      5949      5952      5953      5950      5949      5952      5954
      5950      5949      5952      5955      5951      5949      5952      5953
      5951      5949      5952      5954      5951      5949      5952      5955
      5952      5955      5958      5959      5952      5955      5958      5960
      5952      5955      5958      5964      5953      5952      5955      5956
      5953      5952      5955      5957      5953      5952      5955      5958
      5954      5952      5955      5956      5954      5952      5955      5957
      5954      5952      5955      5958      5955      5958      5960      5961
      5955      5958      5960      5962      5955      5958      5960      5963
      5955      5958      5964      5965      5955      5958      5964      5966
      5955      5958      5964      5967      5956      5955      5958      5959
      5956      5955      5958      5960      5956      5955      5958      5964
      5957      5955      5958      5959      5957      5955      5958      5960
      5957      5955      5958      5964      5959      5958      5960      5961
      5959      5958      5960      5962      5959      5958      5960      5963
      5959      5958      5964      5965      5959      5958      5964      5966
      5959      5958      5964      5967      5960      5958      5964      5965
      5960      5958      5964      5966      5960      5958      5964      5967
      5961      5960      5958      5964      5962      5960      5958      5964
      5963      5960      5958      5964      5968      5981      5984      5985
      5968      5981      5984      5986      5968      5981      5984      5991
      5969      5968      5973      5974      5969      5968      5973      5975
      5969      5968      5973      5976      5969      5968      5977      5978
      5969      5968      5977      5979      5969      5968      5977      5980
      5969      5968      5981      5982      5969      5968      5981      5983
      5969      5968      5981      5984      5970      5969      5968      5973
      5970      5969      5968      5977      5970      5969      5968      5981
      5971      5969      5968      5973      5971      5969      5968      5977
      5971      5969      5968      5981      5972      5969      5968      5973
      5972      5969      5968      5977      5972      5969      5968      5981
      5973      5968      5977      5978      5973      5968      5977      5979
      5973      5968      5977      5980      5973      5968      5981      5982
      5973      5968      5981      5983      5973      5968      5981      5984
      5974      5973      5968      5977      5974      5973      5968      5981
      5975      5973      5968      5977      5975      5973      5968      5981
      5976      5973      5968      5977      5976      5973      5968      5981
      5977      5968      5981      5982      5977      5968      5981      5983
      5977      5968      5981      5984      5978      5977      5968      5981
      5979      5977      5968      5981      5980      5977      5968      5981
      5981      5984      5991      5987      5982      5981      5984      5985
      5982      5981      5984      5986      5982      5981      5984      5991
      5983      5981      5984      5985      5983      5981      5984      5986
      5983      5981      5984      5991      5984      5991      5987      5988
      5984      5991      5987      5989      5984      5991      5987      5990
      5985      5984      5991      5987      5986      5984      5991      5987
      5987      5990      5992      5993      5987      5990      5992      5994
      5987      5990      5992      5997      5988      5987      5990      5992
      5989      5987      5990      5992      5990      5992      5997      5995
      5990      5992      5997      5998      5990      5992      5997      5999
      5991      5987      5990      5992      5992      5997      5995      5996
      5992      5997      5995      6047      5992      5997      5999      6000
      5992      5997      5999      6001      5992      5997      5999      6003
      5993      5992      5997      5995      5993      5992      5997      5998
      5993      5992      5997      5999      5994      5992      5997      5995
      5994      5992      5997      5998      5994      5992      5997      5999
      5995      5997      5999      6000      5995      5997      5999      6001
      5995      5997      5999      6003      5995      6047      6049      6050
      5995      6047      6049      6051      5995      6047      6049      6052
      5996      5995      5997      5998      5996      5995      5997      5999
      5996      5995      6047      6048      5996      5995      6047      6049
      5997      5995      6047      6048      5997      5995      6047      6049
      5997      5999      6001      6002      5997      5999      6003      6004
      5997      5999      6003      6005      5998      5997      5995      6047
      5998      5997      5999      6000      5998      5997      5999      6001
      5998      5997      5999      6003      5999      5997      5995      6047
      5999      6003      6005      6006      5999      6003      6005      6007
      6000      5999      6001      6002      6000      5999      6003      6004
      6000      5999      6003      6005      6001      5999      6003      6004
      6001      5999      6003      6005      6002      6001      5999      6003
      6003      6005      6007      6008      6003      6005      6007      6009
      6003      6005      6007      6010      6004      6003      6005      6006
      6004      6003      6005      6007      6005      6007      6010      6011
      6005      6007      6010      6012      6005      6007      6010      6013
      6006      6005      6007      6008      6006      6005      6007      6009
      6006      6005      6007      6010      6007      6010      6013      6014
      6007      6010      6013      6015      6007      6010      6013      6016
      6008      6007      6010      6011      6008      6007      6010      6012
      6008      6007      6010      6013      6009      6007      6010      6011
      6009      6007      6010      6012      6009      6007      6010      6013
      6010      6013      6016      6017      6010      6013      6016      6018
      6010      6013      6016      6019      6011      6010      6013      6014
      6011      6010      6013      6015      6011      6010      6013      6016
      6012      6010      6013      6014      6012      6010      6013      6015
      6012      6010      6013      6016      6013      6016      6019      6020
      6013      6016      6019      6021      6013      6016      6019      6022
      6014      6013      6016      6017      6014      6013      6016      6018
      6014      6013      6016      6019      6015      6013      6016      6017
      6015      6013      6016      6018      6015      6013      6016      6019
      6016      6019      6022      6023      6016      6019      6022      6024
      6016      6019      6022      6025      6017      6016      6019      6020
      6017      6016      6019      6021      6017      6016      6019      6022
      6018      6016      6019      6020      6018      6016      6019      6021
      6018      6016      6019      6022      6019      6022      6025      6026
      6019      6022      6025      6027      6019      6022      6025      6028
      6020      6019      6022      6023      6020      6019      6022      6024
      6020      6019      6022      6025      6021      6019      6022      6023
      6021      6019      6022      6024      6021      6019      6022      6025
      6022      6025      6028      6029      6022      6025      6028      6030
      6022      6025      6028      6031      6023      6022      6025      6026
      6023      6022      6025      6027      6023      6022      6025      6028
      6024      6022      6025      6026      6024      6022      6025      6027
      6024      6022      6025      6028      6025      6028      6031      6032
      6025      6028      6031      6033      6025      6028      6031      6034
      6026      6025      6028      6029      6026      6025      6028      6030
      6026      6025      6028      6031      6027      6025      6028      6029
      6027      6025      6028      6030      6027      6025      6028      6031
      6028      6031      6034      6035      6028      6031      6034      6036
      6028      6031      6034      6037      6029      6028      6031      6032
      6029      6028      6031      6033      6029      6028      6031      6034
      6030      6028      6031      6032      6030      6028      6031      6033
      6030      6028      6031      6034      6031      6034      6037      6038
      6031      6034      6037      6039      6031      6034      6037      6040
      6032      6031      6034      6035      6032      6031      6034      6036
      6032      6031      6034      6037      6033      6031      6034      6035
      6033      6031      6034      6036      6033      6031      6034      6037
      6034      6037      6040      6041      6034      6037      6040      6042
      6034      6037      6040      6043      6035      6034      6037      6038
      6035      6034      6037      6039      6035      6034      6037      6040
      6036      6034      6037      6038      6036      6034      6037      6039
      6036      6034      6037      6040      6037      6040      6043      6044
      6037      6040      6043      6045      6037      6040      6043      6046
      6038      6037      6040      6041      6038      6037      6040      6042
      6038      6037      6040      6043      6039      6037      6040      6041
      6039      6037      6040      6042      6039      6037      6040      6043
      6041      6040      6043      6044      6041      6040      6043      6045
      6041      6040      6043      6046      6042      6040      6043      6044
      6042      6040      6043      6045      6042      6040      6043      6046
      6047      6049      6052      6053      6047      6049      6052      6054
      6047      6049      6052      6055      6048      6047      6049      6050
      6048      6047      6049      6051      6048      6047      6049      6052
      6049      6052      6055      6056      6049      6052      6055      6057
      6049      6052      6055      6058      6050      6049      6052      6053
      6050      6049      6052      6054      6050      6049      6052      6055
      6051      6049      6052      6053      6051      6049      6052      6054
      6051      6049      6052      6055      6052      6055      6058      6059
      6052      6055      6058      6060      6052      6055      6058      6061
      6053      6052      6055      6056      6053      6052      6055      6057
      6053      6052      6055      6058      6054      6052      6055      6056
      6054      6052      6055      6057      6054      6052      6055      6058
      6055      6058      6061      6062      6055      6058      6061      6063
      6055      6058      6061      6064      6056      6055      6058      6059
      6056      6055      6058      6060      6056      6055      6058      6061
      6057      6055      6058      6059      6057      6055      6058      6060
      6057      6055      6058      6061      6058      6061      6064      6065
      6058      6061      6064      6066      6058      6061      6064      6067
      6059      6058      6061      6062      6059      6058      6061      6063
      6059      6058      6061      6064      6060      6058      6061      6062
      6060      6058      6061      6063      6060      6058      6061      6064
      6061      6064      6067      6068      6061      6064      6067      6069
      6061      6064      6067      6070      6062      6061      6064      6065
      6062      6061      6064      6066      6062      6061      6064      6067
      6063      6061      6064      6065      6063      6061      6064      6066
      6063      6061      6064      6067      6064      6067      6070      6071
      6064      6067      6070      6072      6064      6067      6070      6073
      6065      6064      6067      6068      6065      6064      6067      6069
      6065      6064      6067      6070      6066      6064      6067      6068
      6066      6064      6067      6069      6066      6064      6067      6070
      6067      6070      6073      6074      6067      6070      6073      6075
      6067      6070      6073      6076      6068      6067      6070      6071
      6068      6067      6070      6072      6068      6067      6070      6073
      6069      6067      6070      6071      6069      6067      6070      6072
      6069      6067      6070      6073      6070      6073      6076      6077
      6070      6073      6076      6078      6070      6073      6076      6079
      6071      6070      6073      6074      6071      6070      6073      6075
      6071      6070      6073      6076      6072      6070      6073      6074
      6072      6070      6073      6075      6072      6070      6073      6076
      6073      6076      6079      6080      6073      6076      6079      6081
      6073      6076      6079      6082      6074      6073      6076      6077
      6074      6073      6076      6078      6074      6073      6076      6079
      6075      6073      6076      6077      6075      6073      6076      6078
      6075      6073      6076      6079      6076      6079      6082      6083
      6076      6079      6082      6084      6076      6079      6082      6085
      6077      6076      6079      6080      6077      6076      6079      6081
      6077      6076      6079      6082      6078      6076      6079      6080
      6078      6076      6079      6081      6078      6076      6079      6082
      6079      6082      6085      6086      6079      6082      6085      6087
      6079      6082      6085      6088      6080      6079      6082      6083
      6080      6079      6082      6084      6080      6079      6082      6085
      6081      6079      6082      6083      6081      6079      6082      6084
      6081      6079      6082      6085      6082      6085      6088      6089
      6082      6085      6088      6090      6082      6085      6088      6091
      6083      6082      6085      6086      6083      6082      6085      6087
      6083      6082      6085      6088      6084      6082      6085      6086
      6084      6082      6085      6087      6084      6082      6085      6088
      6085      6088      6091      6092      6085      6088      6091      6093
      6085      6088      6091      6094      6086      6085      6088      6089
      6086      6085      6088      6090      6086      6085      6088      6091
      6087      6085      6088      6089      6087      6085      6088      6090
      6087      6085      6088      6091      6088      6091      6094      6095
      6088      6091      6094      6096      6088      6091      6094      6097
      6089      6088      6091      6092      6089      6088      6091      6093
      6089      6088      6091      6094      6090      6088      6091      6092
      6090      6088      6091      6093      6090      6088      6091      6094
      6091      6094      6097      6098      6091      6094      6097      6099
      6091      6094      6097      6100      6092      6091      6094      6095
      6092      6091      6094      6096      6092      6091      6094      6097
      6093      6091      6094      6095      6093      6091      6094      6096
      6093      6091      6094      6097      6094      6097      6100      6101
      6094      6097      6100      6102      6094      6097      6100      6103
      6095      6094      6097      6098      6095      6094      6097      6099
      6095      6094      6097      6100      6096      6094      6097      6098
      6096      6094      6097      6099      6096      6094      6097      6100
      6097      6100      6103      6104      6097      6100      6103      6105
      6097      6100      6103      6106      6098      6097      6100      6101
      6098      6097      6100      6102      6098      6097      6100      6103
      6099      6097      6100      6101      6099      6097      6100      6102
      6099      6097      6100      6103      6100      6103      6106      6107
      6100      6103      6106      6108      6100      6103      6106      6109
      6101      6100      6103      6104      6101      6100      6103      6105
      6101      6100      6103      6106      6102      6100      6103      6104
      6102      6100      6103      6105      6102      6100      6103      6106
      6103      6106      6109      6110      6103      6106      6109      6111
      6103      6106      6109      6112      6104      6103      6106      6107
      6104      6103      6106      6108      6104      6103      6106      6109
      6105      6103      6106      6107      6105      6103      6106      6108
      6105      6103      6106      6109      6106      6109      6112      6113
      6106      6109      6112      6114      6106      6109      6112      6115
      6107      6106      6109      6110      6107      6106      6109      6111
      6107      6106      6109      6112      6108      6106      6109      6110
      6108      6106      6109      6111      6108      6106      6109      6112
      6110      6109      6112      6113      6110      6109      6112      6114
      6110      6109      6112      6115      6111      6109      6112      6113
      6111      6109      6112      6114      6111      6109      6112      6115
      6116      6129      6132      6133      6116      6129      6132      6134
      6116      6129      6132      6139      6117      6116      6121      6122
      6117      6116      6121      6123      6117      6116      6121      6124
      6117      6116      6125      6126      6117      6116      6125      6127
      6117      6116      6125      6128      6117      6116      6129      6130
      6117      6116      6129      6131      6117      6116      6129      6132
      6118      6117      6116      6121      6118      6117      6116      6125
      6118      6117      6116      6129      6119      6117      6116      6121
      6119      6117      6116      6125      6119      6117      6116      6129
      6120      6117      6116      6121      6120      6117      6116      6125
      6120      6117      6116      6129      6121      6116      6125      6126
      6121      6116      6125      6127      6121      6116      6125      6128
      6121      6116      6129      6130      6121      6116      6129      6131
      6121      6116      6129      6132      6122      6121      6116      6125
      6122      6121      6116      6129      6123      6121      6116      6125
      6123      6121      6116      6129      6124      6121      6116      6125
      6124      6121      6116      6129      6125      6116      6129      6130
      6125      6116      6129      6131      6125      6116      6129      6132
      6126      6125      6116      6129      6127      6125      6116      6129
      6128      6125      6116      6129      6129      6132      6139      6135
      6130      6129      6132      6133      6130      6129      6132      6134
      6130      6129      6132      6139      6131      6129      6132      6133
      6131      6129      6132      6134      6131      6129      6132      6139
      6132      6139      6135      6136      6132      6139      6135      6137
      6132      6139      6135      6138      6133      6132      6139      6135
      6134      6132      6139      6135      6135      6138      6140      6141
      6135      6138      6140      6142      6135      6138      6140      6145
      6136      6135      6138      6140      6137      6135      6138      6140
      6138      6140      6145      6143      6138      6140      6145      6146
      6138      6140      6145      6147      6139      6135      6138      6140
      6140      6145      6143      6144      6140      6145      6143      6195
      6140      6145      6147      6148      6140      6145      6147      6149
      6140      6145      6147      6151      6141      6140      6145      6143
      6141      6140      6145      6146      6141      6140      6145      6147
      6142      6140      6145      6143      6142      6140      6145      6146
      6142      6140      6145      6147      6143      6145      6147      6148
      6143      6145      6147      6149      6143      6145      6147      6151
      6143      6195      6197      6198      6143      6195      6197      6199
      6143      6195      6197      6200      6144      6143      6145      6146
      6144      6143      6145      6147      6144      6143      6195      6196
      6144      6143      6195      6197      6145      6143      6195      6196
      6145      6143      6195      6197      6145      6147      6149      6150
      6145      6147      6151      6152      6145      6147      6151      6153
      6146      6145      6143      6195      6146      6145      6147      6148
      6146      6145      6147      6149      6146      6145      6147      6151
      6147      6145      6143      6195      6147      6151      6153      6154
      6147      6151      6153      6155      6148      6147      6149      6150
      6148      6147      6151      6152      6148      6147      6151      6153
      6149      6147      6151      6152      6149      6147      6151      6153
      6150      6149      6147      6151      6151      6153      6155      6156
      6151      6153      6155      6157      6151      6153      6155      6158
      6152      6151      6153      6154      6152      6151      6153      6155
      6153      6155      6158      6159      6153      6155      6158      6160
      6153      6155      6158      6161      6154      6153      6155      6156
      6154      6153      6155      6157      6154      6153      6155      6158
      6155      6158      6161      6162      6155      6158      6161      6163
      6155      6158      6161      6164      6156      6155      6158      6159
      6156      6155      6158      6160      6156      6155      6158      6161
      6157      6155      6158      6159      6157      6155      6158      6160
      6157      6155      6158      6161      6158      6161      6164      6165
      6158      6161      6164      6166      6158      6161      6164      6167
      6159      6158      6161      6162      6159      6158      6161      6163
      6159      6158      6161      6164      6160      6158      6161      6162
      6160      6158      6161      6163      6160      6158      6161      6164
      6161      6164      6167      6168      6161      6164      6167      6169
      6161      6164      6167      6170      6162      6161      6164      6165
      6162      6161      6164      6166      6162      6161      6164      6167
      6163      6161      6164      6165      6163      6161      6164      6166
      6163      6161      6164      6167      6164      6167      6170      6171
      6164      6167      6170      6172      6164      6167      6170      6173
      6165      6164      6167      6168      6165      6164      6167      6169
      6165      6164      6167      6170      6166      6164      6167      6168
      6166      6164      6167      6169      6166      6164      6167      6170
      6167      6170      6173      6174      6167      6170      6173      6175
      6167      6170      6173      6176      6168      6167      6170      6171
      6168      6167      6170      6172      6168      6167      6170      6173
      6169      6167      6170      6171      6169      6167      6170      6172
      6169      6167      6170      6173      6170      6173      6176      6177
      6170      6173      6176      6178      6170      6173      6176      6179
      6171      6170      6173      6174      6171      6170      6173      6175
      6171      6170      6173      6176      6172      6170      6173      6174
      6172      6170      6173      6175      6172      6170      6173      6176
      6173      6176      6179      6180      6173      6176      6179      6181
      6173      6176      6179      6182      6174      6173      6176      6177
      6174      6173      6176      6178      6174      6173      6176      6179
      6175      6173      6176      6177      6175      6173      6176      6178
      6175      6173      6176      6179      6176      6179      6182      6183
      6176      6179      6182      6184      6176      6179      6182      6185
      6177      6176      6179      6180      6177      6176      6179      6181
      6177      6176      6179      6182      6178      6176      6179      6180
      6178      6176      6179      6181      6178      6176      6179      6182
      6179      6182      6185      6186      6179      6182      6185      6187
      6179      6182      6185      6188      6180      6179      6182      6183
      6180      6179      6182      6184      6180      6179      6182      6185
      6181      6179      6182      6183      6181      6179      6182      6184
      6181      6179      6182      6185      6182      6185      6188      6189
      6182      6185      6188      6190      6182      6185      6188      6191
      6183      6182      6185      6186      6183      6182      6185      6187
      6183      6182      6185      6188      6184      6182      6185      6186
      6184      6182      6185      6187      6184      6182      6185      6188
      6185      6188      6191      6192      6185      6188      6191      6193
      6185      6188      6191      6194      6186      6185      6188      6189
      6186      6185      6188      6190      6186      6185      6188      6191
      6187      6185      6188      6189      6187      6185      6188      6190
      6187      6185      6188      6191      6189      6188      6191      6192
      6189      6188      6191      6193      6189      6188      6191      6194
      6190      6188      6191      6192      6190      6188      6191      6193
      6190      6188      6191      6194      6195      6197      6200      6201
      6195      6197      6200      6202      6195      6197      6200      6203
      6196      6195      6197      6198      6196      6195      6197      6199
      6196      6195      6197      6200      6197      6200      6203      6204
      6197      6200      6203      6205      6197      6200      6203      6206
      6198      6197      6200      6201      6198      6197      6200      6202
      6198      6197      6200      6203      6199      6197      6200      6201
      6199      6197      6200      6202      6199      6197      6200      6203
      6200      6203      6206      6207      6200      6203      6206      6208
      6200      6203      6206      6209      6201      6200      6203      6204
      6201      6200      6203      6205      6201      6200      6203      6206
      6202      6200      6203      6204      6202      6200      6203      6205
      6202      6200      6203      6206      6203      6206      6209      6210
      6203      6206      6209      6211      6203      6206      6209      6212
      6204      6203      6206      6207      6204      6203      6206      6208
      6204      6203      6206      6209      6205      6203      6206      6207
      6205      6203      6206      6208      6205      6203      6206      6209
      6206      6209      6212      6213      6206      6209      6212      6214
      6206      6209      6212      6215      6207      6206      6209      6210
      6207      6206      6209      6211      6207      6206      6209      6212
      6208      6206      6209      6210      6208      6206      6209      6211
      6208      6206      6209      6212      6209      6212      6215      6216
      6209      6212      6215      6217      6209      6212      6215      6218
      6210      6209      6212      6213      6210      6209      6212      6214
      6210      6209      6212      6215      6211      6209      6212      6213
      6211      6209      6212      6214      6211      6209      6212      6215
      6212      6215      6218      6219      6212      6215      6218      6220
      6212      6215      6218      6221      6213      6212      6215      6216
      6213      6212      6215      6217      6213      6212      6215      6218
      6214      6212      6215      6216      6214      6212      6215      6217
      6214      6212      6215      6218      6215      6218      6221      6222
      6215      6218      6221      6223      6215      6218      6221      6224
      6216      6215      6218      6219      6216      6215      6218      6220
      6216      6215      6218      6221      6217      6215      6218      6219
      6217      6215      6218      6220      6217      6215      6218      6221
      6218      6221      6224      6225      6218      6221      6224      6226
      6218      6221      6224      6227      6219      6218      6221      6222
      6219      6218      6221      6223      6219      6218      6221      6224
      6220      6218      6221      6222      6220      6218      6221      6223
      6220      6218      6221      6224      6221      6224      6227      6228
      6221      6224      6227      6229      6221      6224      6227      6230
      6222      6221      6224      6225      6222      6221      6224      6226
      6222      6221      6224      6227      6223      6221      6224      6225
      6223      6221      6224      6226      6223      6221      6224      6227
      6224      6227      6230      6231      6224      6227      6230      6232
      6224      6227      6230      6233      6225      6224      6227      6228
      6225      6224      6227      6229      6225      6224      6227      6230
      6226      6224      6227      6228      6226      6224      6227      6229
      6226      6224      6227      6230      6227      6230      6233      6234
      6227      6230      6233      6235      6227      6230      6233      6236
      6228      6227      6230      6231      6228      6227      6230      6232
      6228      6227      6230      6233      6229      6227      6230      6231
      6229      6227      6230      6232      6229      6227      6230      6233
      6230      6233      6236      6237      6230      6233      6236      6238
      6230      6233      6236      6239      6231      6230      6233      6234
      6231      6230      6233      6235      6231      6230      6233      6236
      6232      6230      6233      6234      6232      6230      6233      6235
      6232      6230      6233      6236      6233      6236      6239      6240
      6233      6236      6239      6241      6233      6236      6239      6242
      6234      6233      6236      6237      6234      6233      6236      6238
      6234      6233      6236      6239      6235      6233      6236      6237
      6235      6233      6236      6238      6235      6233      6236      6239
      6236      6239      6242      6243      6236      6239      6242      6244
      6236      6239      6242      6245      6237      6236      6239      6240
      6237      6236      6239      6241      6237      6236      6239      6242
      6238      6236      6239      6240      6238      6236      6239      6241
      6238      6236      6239      6242      6239      6242      6245      6246
      6239      6242      6245      6247      6239      6242      6245      6248
      6240      6239      6242      6243      6240      6239      6242      6244
      6240      6239      6242      6245      6241      6239      6242      6243
      6241      6239      6242      6244      6241      6239      6242      6245
      6242      6245      6248      6249      6242      6245      6248      6250
      6242      6245      6248      6251      6243      6242      6245      6246
      6243      6242      6245      6247      6243      6242      6245      6248
      6244      6242      6245      6246      6244      6242      6245      6247
      6244      6242      6245      6248      6245      6248      6251      6252
      6245      6248      6251      6253      6245      6248      6251      6254
      6246      6245      6248      6249      6246      6245      6248      6250
      6246      6245      6248      6251      6247      6245      6248      6249
      6247      6245      6248      6250      6247      6245      6248      6251
      6248      6251      6254      6255      6248      6251      6254      6256
      6248      6251      6254      6257      6249      6248      6251      6252
      6249      6248      6251      6253      6249      6248      6251      6254
      6250      6248      6251      6252      6250      6248      6251      6253
      6250      6248      6251      6254      6251      6254      6257      6258
      6251      6254      6257      6259      6251      6254      6257      6260
      6252      6251      6254      6255      6252      6251      6254      6256
      6252      6251      6254      6257      6253      6251      6254      6255
      6253      6251      6254      6256      6253      6251      6254      6257
      6254      6257      6260      6261      6254      6257      6260      6262
      6254      6257      6260      6263      6255      6254      6257      6258
      6255      6254      6257      6259      6255      6254      6257      6260
      6256      6254      6257      6258      6256      6254      6257      6259
      6256      6254      6257      6260      6258      6257      6260      6261
      6258      6257      6260      6262      6258      6257      6260      6263
      6259      6257      6260      6261      6259      6257      6260      6262
      6259      6257      6260      6263      6264      6268      6271      6272
      6264      6268      6271      6273      6264      6268      6271      6278
      6265      6264      6268      6269      6265      6264      6268      6270
      6265      6264      6268      6271      6266      6264      6268      6269
      6266      6264      6268      6270      6266      6264      6268      6271
      6267      6264      6268      6269      6267      6264      6268      6270
      6267      6264      6268      6271      6268      6271      6278      6274
      6269      6268      6271      6272      6269      6268      6271      6273
      6269      6268      6271      6278      6270      6268      6271      6272
      6270      6268      6271      6273      6270      6268      6271      6278
      6271      6278      6274      6275      6271      6278      6274      6276
      6271      6278      6274      6277      6272      6271      6278      6274
      6273      6271      6278      6274      6274      6277      6279      6280
      6274      6277      6279      6281      6274      6277      6279      6282
      6275      6274      6277      6279      6276      6274      6277      6279
      6277      6279      6282      6283      6277      6279      6282      6284
      6277      6279      6282      6290      6278      6274      6277      6279
      6279      6282      6284      6285      6279      6282      6290      6291
      6279      6282      6290      6292      6279      6282      6290      6293
      6280      6279      6282      6283      6280      6279      6282      6284
      6280      6279      6282      6290      6281      6279      6282      6283
      6281      6279      6282      6284      6281      6279      6282      6290
      6282      6284      6285      6286      6282      6284      6285      6287
      6282      6290      6293      6294      6283      6282      6284      6285
      6283      6282      6290      6291      6283      6282      6290      6292
      6283      6282      6290      6293      6284      6282      6290      6291
      6284      6282      6290      6292      6284      6282      6290      6293
      6284      6285      6287      6288      6284      6285      6287      6289
      6284      6285      6287      6299      6285      6284      6282      6290
      6285      6287      6299      6300      6285      6287      6299      6301
      6285      6287      6299      6302      6286      6285      6287      6288
      6286      6285      6287      6289      6286      6285      6287      6299
      6287      6299      6302      6303      6287      6299      6302      6304
      6287      6299      6302      6305      6288      6287      6299      6300
      6288      6287      6299      6301      6288      6287      6299      6302
      6289      6287      6299      6300      6289      6287      6299      6301
      6289      6287      6299      6302      6290      6293      6294      6295
      6290      6293      6294      6296      6291      6290      6293      6294
      6292      6290      6293      6294      6293      6294      6296      6297
      6293      6294      6296      6298      6293      6294      6296      6346
      6294      6296      6346      6347      6294      6296      6346      6348
      6294      6296      6346      6349      6295      6294      6296      6297
      6295      6294      6296      6298      6295      6294      6296      6346
      6296      6346      6349      6350      6296      6346      6349      6351
      6296      6346      6349      6352      6297      6296      6346      6347
      6297      6296      6346      6348      6297      6296      6346      6349
      6298      6296      6346      6347      6298      6296      6346      6348
      6298      6296      6346      6349      6299      6302      6305      6306
      6299      6302      6305      6307      6299      6302      6305      6308
      6300      6299      6302      6303      6300      6299      6302      6304
      6300      6299      6302      6305      6301      6299      6302      6303
      6301      6299      6302      6304      6301      6299      6302      6305
      6302      6305      6308      6309      6302      6305      6308      6310
      6302      6305      6308      6311      6303      6302      6305      6306
      6303      6302      6305      6307      6303      6302      6305      6308
      6304      6302      6305      6306      6304      6302      6305      6307
      6304      6302      6305      6308      6305      6308      6311      6312
      6305      6308      6311      6313      6305      6308      6311      6314
      6306      6305      6308      6309      6306      6305      6308      6310
      6306      6305      6308      6311      6307      6305      6308      6309
      6307      6305      6308      6310      6307      6305      6308      6311
      6308      6311      6314      6315      6308      6311      6314      6316
      6308      6311      6314      6317      6309      6308      6311      6312
      6309      6308      6311      6313      6309      6308      6311      6314
      6310      6308      6311      6312      6310      6308      6311      6313
      6310      6308      6311      6314      6311      6314      6317      6318
      6311      6314      6317      6319      6312      6311      6314      6315
      6312      6311      6314      6316      6312      6311      6314      6317
      6313      6311      6314      6315      6313      6311      6314      6316
      6313      6311      6314      6317      6314      6317      6319      6320
      6314      6317      6319      6321      6315      6314      6317      6318
      6315      6314      6317      6319      6316      6314      6317      6318
      6316      6314      6317      6319      6317      6319      6321      6322
      6317      6319      6321      6323      6317      6319      6321      6324
      6318      6317      6319      6320      6318      6317      6319      6321
      6319      6321      6324      6325      6319      6321      6324      6326
      6319      6321      6324      6327      6320      6319      6321      6322
      6320      6319      6321      6323      6320      6319      6321      6324
      6321      6324      6327      6328      6321      6324      6327      6329
      6321      6324      6327      6330      6322      6321      6324      6325
      6322      6321      6324      6326      6322      6321      6324      6327
      6323      6321      6324      6325      6323      6321      6324      6326
      6323      6321      6324      6327      6324      6327      6330      6331
      6324      6327      6330      6332      6324      6327      6330      6333
      6325      6324      6327      6328      6325      6324      6327      6329
      6325      6324      6327      6330      6326      6324      6327      6328
      6326      6324      6327      6329      6326      6324      6327      6330
      6327      6330      6333      6334      6327      6330      6333      6335
      6327      6330      6333      6336      6328      6327      6330      6331
      6328      6327      6330      6332      6328      6327      6330      6333
      6329      6327      6330      6331      6329      6327      6330      6332
      6329      6327      6330      6333      6330      6333      6336      6337
      6330      6333      6336      6338      6330      6333      6336      6339
      6331      6330      6333      6334      6331      6330      6333      6335
      6331      6330      6333      6336      6332      6330      6333      6334
      6332      6330      6333      6335      6332      6330      6333      6336
      6333      6336      6339      6340      6333      6336      6339      6341
      6333      6336      6339      6342      6334      6333      6336      6337
      6334      6333      6336      6338      6334      6333      6336      6339
      6335      6333      6336      6337      6335      6333      6336      6338
      6335      6333      6336      6339      6336      6339      6342      6343
      6336      6339      6342      6344      6336      6339      6342      6345
      6337      6336      6339      6340      6337      6336      6339      6341
      6337      6336      6339      6342      6338      6336      6339      6340
      6338      6336      6339      6341      6338      6336      6339      6342
      6340      6339      6342      6343      6340      6339      6342      6344
      6340      6339      6342      6345      6341      6339      6342      6343
      6341      6339      6342      6344      6341      6339      6342      6345
      6346      6349      6352      6353      6346      6349      6352      6354
      6346      6349      6352      6355      6347      6346      6349      6350
      6347      6346      6349      6351      6347      6346      6349      6352
      6348      6346      6349      6350      6348      6346      6349      6351
      6348      6346      6349      6352      6349      6352      6355      6356
      6349      6352      6355      6357      6349      6352      6355      6358
      6350      6349      6352      6353      6350      6349      6352      6354
      6350      6349      6352      6355      6351      6349      6352      6353
      6351      6349      6352      6354      6351      6349      6352      6355
      6352      6355      6358      6359      6352      6355      6358      6360
      6352      6355      6358      6361      6353      6352      6355      6356
      6353      6352      6355      6357      6353      6352      6355      6358
      6354      6352      6355      6356      6354      6352      6355      6357
      6354      6352      6355      6358      6355      6358      6361      6362
      6355      6358      6361      6363      6355      6358      6361      6364
      6356      6355      6358      6359      6356      6355      6358      6360
      6356      6355      6358      6361      6357      6355      6358      6359
      6357      6355      6358      6360      6357      6355      6358      6361
      6358      6361      6364      6365      6358      6361      6364      6366
      6359      6358      6361      6362      6359      6358      6361      6363
      6359      6358      6361      6364      6360      6358      6361      6362
      6360      6358      6361      6363      6360      6358      6361      6364
      6361      6364      6366      6367      6361      6364      6366      6368
      6362      6361      6364      6365      6362      6361      6364      6366
      6363      6361      6364      6365      6363      6361      6364      6366
      6364      6366      6368      6369      6364      6366      6368      6370
      6364      6366      6368      6371      6365      6364      6366      6367
      6365      6364      6366      6368      6366      6368      6371      6372
      6366      6368      6371      6373      6366      6368      6371      6374
      6367      6366      6368      6369      6367      6366      6368      6370
      6367      6366      6368      6371      6368      6371      6374      6375
      6368      6371      6374      6376      6368      6371      6374      6377
      6369      6368      6371      6372      6369      6368      6371      6373
      6369      6368      6371      6374      6370      6368      6371      6372
      6370      6368      6371      6373      6370      6368      6371      6374
      6371      6374      6377      6378      6371      6374      6377      6379
      6371      6374      6377      6380      6372      6371      6374      6375
      6372      6371      6374      6376      6372      6371      6374      6377
      6373      6371      6374      6375      6373      6371      6374      6376
      6373      6371      6374      6377      6374      6377      6380      6381
      6374      6377      6380      6382      6374      6377      6380      6383
      6375      6374      6377      6378      6375      6374      6377      6379
      6375      6374      6377      6380      6376      6374      6377      6378
      6376      6374      6377      6379      6376      6374      6377      6380
      6377      6380      6383      6384      6377      6380      6383      6385
      6377      6380      6383      6386      6378      6377      6380      6381
      6378      6377      6380      6382      6378      6377      6380      6383
      6379      6377      6380      6381      6379      6377      6380      6382
      6379      6377      6380      6383      6380      6383      6386      6387
      6380      6383      6386      6388      6380      6383      6386      6389
      6381      6380      6383      6384      6381      6380      6383      6385
      6381      6380      6383      6386      6382      6380      6383      6384
      6382      6380      6383      6385      6382      6380      6383      6386
      6383      6386      6389      6390      6383      6386      6389      6391
      6383      6386      6389      6392      6384      6383      6386      6387
      6384      6383      6386      6388      6384      6383      6386      6389
      6385      6383      6386      6387      6385      6383      6386      6388
      6385      6383      6386      6389      6387      6386      6389      6390
      6387      6386      6389      6391      6387      6386      6389      6392
      6388      6386      6389      6390      6388      6386      6389      6391
      6388      6386      6389      6392      6393      6394      6409      6410
      6393      6394      6409      6411      6393      6394      6409      6415
      6394      6393      6397      6398      6394      6393      6397      6399
      6394      6393      6397      6400      6394      6393      6401      6402
      6394      6393      6401      6403      6394      6393      6401      6404
      6394      6393      6405      6406      6394      6393      6405      6407
      6394      6393      6405      6408      6394      6409      6415      6412
      6395      6394      6393      6397      6395      6394      6393      6401
      6395      6394      6393      6405      6395      6394      6409      6410
      6395      6394      6409      6411      6395      6394      6409      6415
      6396      6394      6393      6397      6396      6394      6393      6401
      6396      6394      6393      6405      6396      6394      6409      6410
      6396      6394      6409      6411      6396      6394      6409      6415
      6397      6393      6394      6409      6397      6393      6401      6402
      6397      6393      6401      6403      6397      6393      6401      6404
      6397      6393      6405      6406      6397      6393      6405      6407
      6397      6393      6405      6408      6398      6397      6393      6401
      6398      6397      6393      6405      6399      6397      6393      6401
      6399      6397      6393      6405      6400      6397      6393      6401
      6400      6397      6393      6405      6401      6393      6394      6409
      6401      6393      6405      6406      6401      6393      6405      6407
      6401      6393      6405      6408      6402      6401      6393      6405
      6403      6401      6393      6405      6404      6401      6393      6405
      6405      6393      6394      6409      6409      6415      6412      6413
      6409      6415      6412      6414      6409      6415      6412      6416
      6410      6409      6415      6412      6411      6409      6415      6412
      6412      6416      6417      6418      6412      6416      6417      6419
      6412      6416      6417      6420      6413      6412      6416      6417
      6414      6412      6416      6417      6415      6412      6416      6417
      6416      6417      6420      6421      6416      6417      6420      6422
      6416      6417      6420      6428      6417      6420      6422      6423
      6417      6420      6428      6429      6417      6420      6428      6430
      6417      6420      6428      6431      6418      6417      6420      6421
      6418      6417      6420      6422      6418      6417      6420      6428
      6419      6417      6420      6421      6419      6417      6420      6422
      6419      6417      6420      6428      6420      6422      6423      6424
      6420      6422      6423      6425      6420      6428      6431      6432
      6421      6420      6422      6423      6421      6420      6428      6429
      6421      6420      6428      6430      6421      6420      6428      6431
      6422      6420      6428      6429      6422      6420      6428      6430
      6422      6420      6428      6431      6422      6423      6425      6426
      6422      6423      6425      6427      6422      6423      6425      6437
      6423      6422      6420      6428      6423      6425      6437      6438
      6423      6425      6437      6439      6423      6425      6437      6440
      6424      6423      6425      6426      6424      6423      6425      6427
      6424      6423      6425      6437      6425      6437      6440      6441
      6425      6437      6440      6442      6425      6437      6440      6443
      6426      6425      6437      6438      6426      6425      6437      6439
      6426      6425      6437      6440      6427      6425      6437      6438
      6427      6425      6437      6439      6427      6425      6437      6440
      6428      6431      6432      6433      6428      6431      6432      6434
      6429      6428      6431      6432      6430      6428      6431      6432
      6431      6432      6434      6435      6431      6432      6434      6436
      6431      6432      6434      6484      6432      6434      6484      6485
      6432      6434      6484      6486      6432      6434      6484      6487
      6433      6432      6434      6435      6433      6432      6434      6436
      6433      6432      6434      6484      6434      6484      6487      6488
      6434      6484      6487      6489      6434      6484      6487      6490
      6435      6434      6484      6485      6435      6434      6484      6486
      6435      6434      6484      6487      6436      6434      6484      6485
      6436      6434      6484      6486      6436      6434      6484      6487
      6437      6440      6443      6444      6437      6440      6443      6445
      6437      6440      6443      6446      6438      6437      6440      6441
      6438      6437      6440      6442      6438      6437      6440      6443
      6439      6437      6440      6441      6439      6437      6440      6442
      6439      6437      6440      6443      6440      6443      6446      6447
      6440      6443      6446      6448      6440      6443      6446      6449
      6441      6440      6443      6444      6441      6440      6443      6445
      6441      6440      6443      6446      6442      6440      6443      6444
      6442      6440      6443      6445      6442      6440      6443      6446
      6443      6446      6449      6450      6443      6446      6449      6451
      6443      6446      6449      6452      6444      6443      6446      6447
      6444      6443      6446      6448      6444      6443      6446      6449
      6445      6443      6446      6447      6445      6443      6446      6448
      6445      6443      6446      6449      6446      6449      6452      6453
      6446      6449      6452      6454      6446      6449      6452      6455
      6447      6446      6449      6450      6447      6446      6449      6451
      6447      6446      6449      6452      6448      6446      6449      6450
      6448      6446      6449      6451      6448      6446      6449      6452
      6449      6452      6455      6456      6449      6452      6455      6457
      6450      6449      6452      6453      6450      6449      6452      6454
      6450      6449      6452      6455      6451      6449      6452      6453
      6451      6449      6452      6454      6451      6449      6452      6455
      6452      6455      6457      6458      6452      6455      6457      6459
      6453      6452      6455      6456      6453      6452      6455      6457
      6454      6452      6455      6456      6454      6452      6455      6457
      6455      6457      6459      6460      6455      6457      6459      6461
      6455      6457      6459      6462      6456      6455      6457      6458
      6456      6455      6457      6459      6457      6459      6462      6463
      6457      6459      6462      6464      6457      6459      6462      6465
      6458      6457      6459      6460      6458      6457      6459      6461
      6458      6457      6459      6462      6459      6462      6465      6466
      6459      6462      6465      6467      6459      6462      6465      6468
      6460      6459      6462      6463      6460      6459      6462      6464
      6460      6459      6462      6465      6461      6459      6462      6463
      6461      6459      6462      6464      6461      6459      6462      6465
      6462      6465      6468      6469      6462      6465      6468      6470
      6462      6465      6468      6471      6463      6462      6465      6466
      6463      6462      6465      6467      6463      6462      6465      6468
      6464      6462      6465      6466      6464      6462      6465      6467
      6464      6462      6465      6468      6465      6468      6471      6472
      6465      6468      6471      6473      6465      6468      6471      6474
      6466      6465      6468      6469      6466      6465      6468      6470
      6466      6465      6468      6471      6467      6465      6468      6469
      6467      6465      6468      6470      6467      6465      6468      6471
      6468      6471      6474      6475      6468      6471      6474      6476
      6468      6471      6474      6477      6469      6468      6471      6472
      6469      6468      6471      6473      6469      6468      6471      6474
      6470      6468      6471      6472      6470      6468      6471      6473
      6470      6468      6471      6474      6471      6474      6477      6478
      6471      6474      6477      6479      6471      6474      6477      6480
      6472      6471      6474      6475      6472      6471      6474      6476
      6472      6471      6474      6477      6473      6471      6474      6475
      6473      6471      6474      6476      6473      6471      6474      6477
      6474      6477      6480      6481      6474      6477      6480      6482
      6474      6477      6480      6483      6475      6474      6477      6478
      6475      6474      6477      6479      6475      6474      6477      6480
      6476      6474      6477      6478      6476      6474      6477      6479
      6476      6474      6477      6480      6478      6477      6480      6481
      6478      6477      6480      6482      6478      6477      6480      6483
      6479      6477      6480      6481      6479      6477      6480      6482
      6479      6477      6480      6483      6484      6487      6490      6491
      6484      6487      6490      6492      6484      6487      6490      6493
      6485      6484      6487      6488      6485      6484      6487      6489
      6485      6484      6487      6490      6486      6484      6487      6488
      6486      6484      6487      6489      6486      6484      6487      6490
      6487      6490      6493      6494      6487      6490      6493      6495
      6487      6490      6493      6496      6488      6487      6490      6491
      6488      6487      6490      6492      6488      6487      6490      6493
      6489      6487      6490      6491      6489      6487      6490      6492
      6489      6487      6490      6493      6490      6493      6496      6497
      6490      6493      6496      6498      6490      6493      6496      6499
      6491      6490      6493      6494      6491      6490      6493      6495
      6491      6490      6493      6496      6492      6490      6493      6494
      6492      6490      6493      6495      6492      6490      6493      6496
      6493      6496      6499      6500      6493      6496      6499      6501
      6493      6496      6499      6502      6494      6493      6496      6497
      6494      6493      6496      6498      6494      6493      6496      6499
      6495      6493      6496      6497      6495      6493      6496      6498
      6495      6493      6496      6499      6496      6499      6502      6503
      6496      6499      6502      6504      6497      6496      6499      6500
      6497      6496      6499      6501      6497      6496      6499      6502
      6498      6496      6499      6500      6498      6496      6499      6501
      6498      6496      6499      6502      6499      6502      6504      6505
      6499      6502      6504      6506      6500      6499      6502      6503
      6500      6499      6502      6504      6501      6499      6502      6503
      6501      6499      6502      6504      6502      6504      6506      6507
      6502      6504      6506      6508      6502      6504      6506      6509
      6503      6502      6504      6505      6503      6502      6504      6506
      6504      6506      6509      6510      6504      6506      6509      6511
      6504      6506      6509      6512      6505      6504      6506      6507
      6505      6504      6506      6508      6505      6504      6506      6509
      6506      6509      6512      6513      6506      6509      6512      6514
      6506      6509      6512      6515      6507      6506      6509      6510
      6507      6506      6509      6511      6507      6506      6509      6512
      6508      6506      6509      6510      6508      6506      6509      6511
      6508      6506      6509      6512      6509      6512      6515      6516
      6509      6512      6515      6517      6509      6512      6515      6518
      6510      6509      6512      6513      6510      6509      6512      6514
      6510      6509      6512      6515      6511      6509      6512      6513
      6511      6509      6512      6514      6511      6509      6512      6515
      6512      6515      6518      6519      6512      6515      6518      6520
      6512      6515      6518      6521      6513      6512      6515      6516
      6513      6512      6515      6517      6513      6512      6515      6518
      6514      6512      6515      6516      6514      6512      6515      6517
      6514      6512      6515      6518      6515      6518      6521      6522
      6515      6518      6521      6523      6515      6518      6521      6524
      6516      6515      6518      6519      6516      6515      6518      6520
      6516      6515      6518      6521      6517      6515      6518      6519
      6517      6515      6518      6520      6517      6515      6518      6521
      6518      6521      6524      6525      6518      6521      6524      6526
      6518      6521      6524      6527      6519      6518      6521      6522
      6519      6518      6521      6523      6519      6518      6521      6524
      6520      6518      6521      6522      6520      6518      6521      6523
      6520      6518      6521      6524      6521      6524      6527      6528
      6521      6524      6527      6529      6521      6524      6527      6530
      6522      6521      6524      6525      6522      6521      6524      6526
      6522      6521      6524      6527      6523      6521      6524      6525
      6523      6521      6524      6526      6523      6521      6524      6527
      6525      6524      6527      6528      6525      6524      6527      6529
      6525      6524      6527      6530      6526      6524      6527      6528
      6526      6524      6527      6529      6526      6524      6527      6530
      6531      6544      6547      6548      6531      6544      6547      6549
      6531      6544      6547      6554      6532      6531      6536      6537
      6532      6531      6536      6538      6532      6531      6536      6539
      6532      6531      6540      6541      6532      6531      6540      6542
      6532      6531      6540      6543      6532      6531      6544      6545
      6532      6531      6544      6546      6532      6531      6544      6547
      6533      6532      6531      6536      6533      6532      6531      6540
      6533      6532      6531      6544      6534      6532      6531      6536
      6534      6532      6531      6540      6534      6532      6531      6544
      6535      6532      6531      6536      6535      6532      6531      6540
      6535      6532      6531      6544      6536      6531      6540      6541
      6536      6531      6540      6542      6536      6531      6540      6543
      6536      6531      6544      6545      6536      6531      6544      6546
      6536      6531      6544      6547      6537      6536      6531      6540
      6537      6536      6531      6544      6538      6536      6531      6540
      6538      6536      6531      6544      6539      6536      6531      6540
      6539      6536      6531      6544      6540      6531      6544      6545
      6540      6531      6544      6546      6540      6531      6544      6547
      6541      6540      6531      6544      6542      6540      6531      6544
      6543      6540      6531      6544      6544      6547      6554      6550
      6545      6544      6547      6548      6545      6544      6547      6549
      6545      6544      6547      6554      6546      6544      6547      6548
      6546      6544      6547      6549      6546      6544      6547      6554
      6547      6554      6550      6551      6547      6554      6550      6552
      6547      6554      6550      6553      6548      6547      6554      6550
      6549      6547      6554      6550      6550      6553      6555      6556
      6550      6553      6555      6557      6550      6553      6555      6560
      6551      6550      6553      6555      6552      6550      6553      6555
      6553      6555      6560      6558      6553      6555      6560      6561
      6553      6555      6560      6562      6554      6550      6553      6555
      6555      6560      6558      6559      6555      6560      6558      6610
      6555      6560      6562      6563      6555      6560      6562      6564
      6555      6560      6562      6566      6556      6555      6560      6558
      6556      6555      6560      6561      6556      6555      6560      6562
      6557      6555      6560      6558      6557      6555      6560      6561
      6557      6555      6560      6562      6558      6560      6562      6563
      6558      6560      6562      6564      6558      6560      6562      6566
      6558      6610      6612      6613      6558      6610      6612      6614
      6558      6610      6612      6615      6559      6558      6560      6561
      6559      6558      6560      6562      6559      6558      6610      6611
      6559      6558      6610      6612      6560      6558      6610      6611
      6560      6558      6610      6612      6560      6562      6564      6565
      6560      6562      6566      6567      6560      6562      6566      6568
      6561      6560      6558      6610      6561      6560      6562      6563
      6561      6560      6562      6564      6561      6560      6562      6566
      6562      6560      6558      6610      6562      6566      6568      6569
      6562      6566      6568      6570      6563      6562      6564      6565
      6563      6562      6566      6567      6563      6562      6566      6568
      6564      6562      6566      6567      6564      6562      6566      6568
      6565      6564      6562      6566      6566      6568      6570      6571
      6566      6568      6570      6572      6566      6568      6570      6573
      6567      6566      6568      6569      6567      6566      6568      6570
      6568      6570      6573      6574      6568      6570      6573      6575
      6568      6570      6573      6576      6569      6568      6570      6571
      6569      6568      6570      6572      6569      6568      6570      6573
      6570      6573      6576      6577      6570      6573      6576      6578
      6570      6573      6576      6579      6571      6570      6573      6574
      6571      6570      6573      6575      6571      6570      6573      6576
      6572      6570      6573      6574      6572      6570      6573      6575
      6572      6570      6573      6576      6573      6576      6579      6580
      6573      6576      6579      6581      6573      6576      6579      6582
      6574      6573      6576      6577      6574      6573      6576      6578
      6574      6573      6576      6579      6575      6573      6576      6577
      6575      6573      6576      6578      6575      6573      6576      6579
      6576      6579      6582      6583      6576      6579      6582      6584
      6576      6579      6582      6585      6577      6576      6579      6580
      6577      6576      6579      6581      6577      6576      6579      6582
      6578      6576      6579      6580      6578      6576      6579      6581
      6578      6576      6579      6582      6579      6582      6585      6586
      6579      6582      6585      6587      6579      6582      6585      6588
      6580      6579      6582      6583      6580      6579      6582      6584
      6580      6579      6582      6585      6581      6579      6582      6583
      6581      6579      6582      6584      6581      6579      6582      6585
      6582      6585      6588      6589      6582      6585      6588      6590
      6582      6585      6588      6591      6583      6582      6585      6586
      6583      6582      6585      6587      6583      6582      6585      6588
      6584      6582      6585      6586      6584      6582      6585      6587
      6584      6582      6585      6588      6585      6588      6591      6592
      6585      6588      6591      6593      6585      6588      6591      6594
      6586      6585      6588      6589      6586      6585      6588      6590
      6586      6585      6588      6591      6587      6585      6588      6589
      6587      6585      6588      6590      6587      6585      6588      6591
      6588      6591      6594      6595      6588      6591      6594      6596
      6588      6591      6594      6597      6589      6588      6591      6592
      6589      6588      6591      6593      6589      6588      6591      6594
      6590      6588      6591      6592      6590      6588      6591      6593
      6590      6588      6591      6594      6591      6594      6597      6598
      6591      6594      6597      6599      6591      6594      6597      6600
      6592      6591      6594      6595      6592      6591      6594      6596
      6592      6591      6594      6597      6593      6591      6594      6595
      6593      6591      6594      6596      6593      6591      6594      6597
      6594      6597      6600      6601      6594      6597      6600      6602
      6594      6597      6600      6603      6595      6594      6597      6598
      6595      6594      6597      6599      6595      6594      6597      6600
      6596      6594      6597      6598      6596      6594      6597      6599
      6596      6594      6597      6600      6597      6600      6603      6604
      6597      6600      6603      6605      6597      6600      6603      6606
      6598      6597      6600      6601      6598      6597      6600      6602
      6598      6597      6600      6603      6599      6597      6600      6601
      6599      6597      6600      6602      6599      6597      6600      6603
      6600      6603      6606      6607      6600      6603      6606      6608
      6600      6603      6606      6609      6601      6600      6603      6604
      6601      6600      6603      6605      6601      6600      6603      6606
      6602      6600      6603      6604      6602      6600      6603      6605
      6602      6600      6603      6606      6604      6603      6606      6607
      6604      6603      6606      6608      6604      6603      6606      6609
      6605      6603      6606      6607      6605      6603      6606      6608
      6605      6603      6606      6609      6610      6612      6615      6616
      6610      6612      6615      6617      6610      6612      6615      6618
      6611      6610      6612      6613      6611      6610      6612      6614
      6611      6610      6612      6615      6612      6615      6618      6619
      6612      6615      6618      6620      6612      6615      6618      6621
      6613      6612      6615      6616      6613      6612      6615      6617
      6613      6612      6615      6618      6614      6612      6615      6616
      6614      6612      6615      6617      6614      6612      6615      6618
      6615      6618      6621      6622      6615      6618      6621      6623
      6615      6618      6621      6624      6616      6615      6618      6619
      6616      6615      6618      6620      6616      6615      6618      6621
      6617      6615      6618      6619      6617      6615      6618      6620
      6617      6615      6618      6621      6618      6621      6624      6625
      6618      6621      6624      6626      6618      6621      6624      6627
      6619      6618      6621      6622      6619      6618      6621      6623
      6619      6618      6621      6624      6620      6618      6621      6622
      6620      6618      6621      6623      6620      6618      6621      6624
      6621      6624      6627      6628      6621      6624      6627      6629
      6621      6624      6627      6630      6622      6621      6624      6625
      6622      6621      6624      6626      6622      6621      6624      6627
      6623      6621      6624      6625      6623      6621      6624      6626
      6623      6621      6624      6627      6624      6627      6630      6631
      6624      6627      6630      6632      6624      6627      6630      6633
      6625      6624      6627      6628      6625      6624      6627      6629
      6625      6624      6627      6630      6626      6624      6627      6628
      6626      6624      6627      6629      6626      6624      6627      6630
      6627      6630      6633      6634      6627      6630      6633      6635
      6627      6630      6633      6636      6628      6627      6630      6631
      6628      6627      6630      6632      6628      6627      6630      6633
      6629      6627      6630      6631      6629      6627      6630      6632
      6629      6627      6630      6633      6630      6633      6636      6637
      6630      6633      6636      6638      6630      6633      6636      6639
      6631      6630      6633      6634      6631      6630      6633      6635
      6631      6630      6633      6636      6632      6630      6633      6634
      6632      6630      6633      6635      6632      6630      6633      6636
      6633      6636      6639      6640      6633      6636      6639      6641
      6633      6636      6639      6642      6634      6633      6636      6637
      6634      6633      6636      6638      6634      6633      6636      6639
      6635      6633      6636      6637      6635      6633      6636      6638
      6635      6633      6636      6639      6636      6639      6642      6643
      6636      6639      6642      6644      6636      6639      6642      6645
      6637      6636      6639      6640      6637      6636      6639      6641
      6637      6636      6639      6642      6638      6636      6639      6640
      6638      6636      6639      6641      6638      6636      6639      6642
      6639      6642      6645      6646      6639      6642      6645      6647
      6639      6642      6645      6648      6640      6639      6642      6643
      6640      6639      6642      6644      6640      6639      6642      6645
      6641      6639      6642      6643      6641      6639      6642      6644
      6641      6639      6642      6645      6642      6645      6648      6649
      6642      6645      6648      6650      6642      6645      6648      6651
      6643      6642      6645      6646      6643      6642      6645      6647
      6643      6642      6645      6648      6644      6642      6645      6646
      6644      6642      6645      6647      6644      6642      6645      6648
      6645      6648      6651      6652      6645      6648      6651      6653
      6645      6648      6651      6654      6646      6645      6648      6649
      6646      6645      6648      6650      6646      6645      6648      6651
      6647      6645      6648      6649      6647      6645      6648      6650
      6647      6645      6648      6651      6648      6651      6654      6655
      6648      6651      6654      6656      6648      6651      6654      6657
      6649      6648      6651      6652      6649      6648      6651      6653
      6649      6648      6651      6654      6650      6648      6651      6652
      6650      6648      6651      6653      6650      6648      6651      6654
      6651      6654      6657      6658      6651      6654      6657      6659
      6651      6654      6657      6660      6652      6651      6654      6655
      6652      6651      6654      6656      6652      6651      6654      6657
      6653      6651      6654      6655      6653      6651      6654      6656
      6653      6651      6654      6657      6654      6657      6660      6661
      6654      6657      6660      6662      6654      6657      6660      6663
      6655      6654      6657      6658      6655      6654      6657      6659
      6655      6654      6657      6660      6656      6654      6657      6658
      6656      6654      6657      6659      6656      6654      6657      6660
      6657      6660      6663      6664      6657      6660      6663      6665
      6657      6660      6663      6666      6658      6657      6660      6661
      6658      6657      6660      6662      6658      6657      6660      6663
      6659      6657      6660      6661      6659      6657      6660      6662
      6659      6657      6660      6663      6660      6663      6666      6667
      6660      6663      6666      6668      6660      6663      6666      6669
      6661      6660      6663      6664      6661      6660      6663      6665
      6661      6660      6663      6666      6662      6660      6663      6664
      6662      6660      6663      6665      6662      6660      6663      6666
      6663      6666      6669      6670      6663      6666      6669      6671
      6663      6666      6669      6672      6664      6663      6666      6667
      6664      6663      6666      6668      6664      6663      6666      6669
      6665      6663      6666      6667      6665      6663      6666      6668
      6665      6663      6666      6669      6666      6669      6672      6673
      6666      6669      6672      6674      6666      6669      6672      6675
      6667      6666      6669      6670      6667      6666      6669      6671
      6667      6666      6669      6672      6668      6666      6669      6670
      6668      6666      6669      6671      6668      6666      6669      6672
      6669      6672      6675      6676      6669      6672      6675      6677
      6669      6672      6675      6678      6670      6669      6672      6673
      6670      6669      6672      6674      6670      6669      6672      6675
      6671      6669      6672      6673      6671      6669      6672      6674
      6671      6669      6672      6675      6673      6672      6675      6676
      6673      6672      6675      6677      6673      6672      6675      6678
      6674      6672      6675      6676      6674      6672      6675      6677
      6674      6672      6675      6678      6679      6680      6695      6696
      6679      6680      6695      6697      6679      6680      6695      6701
      6680      6679      6683      6684      6680      6679      6683      6685
      6680      6679      6683      6686      6680      6679      6687      6688
      6680      6679      6687      6689      6680      6679      6687      6690
      6680      6679      6691      6692      6680      6679      6691      6693
      6680      6679      6691      6694      6680      6695      6701      6698
      6681      6680      6679      6683      6681      6680      6679      6687
      6681      6680      6679      6691      6681      6680      6695      6696
      6681      6680      6695      6697      6681      6680      6695      6701
      6682      6680      6679      6683      6682      6680      6679      6687
      6682      6680      6679      6691      6682      6680      6695      6696
      6682      6680      6695      6697      6682      6680      6695      6701
      6683      6679      6680      6695      6683      6679      6687      6688
      6683      6679      6687      6689      6683      6679      6687      6690
      6683      6679      6691      6692      6683      6679      6691      6693
      6683      6679      6691      6694      6684      6683      6679      6687
      6684      6683      6679      6691      6685      6683      6679      6687
      6685      6683      6679      6691      6686      6683      6679      6687
      6686      6683      6679      6691      6687      6679      6680      6695
      6687      6679      6691      6692      6687      6679      6691      6693
      6687      6679      6691      6694      6688      6687      6679      6691
      6689      6687      6679      6691      6690      6687      6679      6691
      6691      6679      6680      6695      6695      6701      6698      6699
      6695      6701      6698      6700      6695      6701      6698      6702
      6696      6695      6701      6698      6697      6695      6701      6698
      6698      6702      6703      6704      6698      6702      6703      6705
      6698      6702      6703      6706      6699      6698      6702      6703
      6700      6698      6702      6703      6701      6698      6702      6703
      6702      6703      6706      6707      6702      6703      6706      6708
      6702      6703      6706      6714      6703      6706      6708      6709
      6703      6706      6714      6715      6703      6706      6714      6716
      6703      6706      6714      6717      6704      6703      6706      6707
      6704      6703      6706      6708      6704      6703      6706      6714
      6705      6703      6706      6707      6705      6703      6706      6708
      6705      6703      6706      6714      6706      6708      6709      6710
      6706      6708      6709      6711      6706      6714      6717      6718
      6707      6706      6708      6709      6707      6706      6714      6715
      6707      6706      6714      6716      6707      6706      6714      6717
      6708      6706      6714      6715      6708      6706      6714      6716
      6708      6706      6714      6717      6708      6709      6711      6712
      6708      6709      6711      6713      6708      6709      6711      6723
      6709      6708      6706      6714      6709      6711      6723      6724
      6709      6711      6723      6725      6709      6711      6723      6726
      6710      6709      6711      6712      6710      6709      6711      6713
      6710      6709      6711      6723      6711      6723      6726      6727
      6711      6723      6726      6728      6711      6723      6726      6729
      6712      6711      6723      6724      6712      6711      6723      6725
      6712      6711      6723      6726      6713      6711      6723      6724
      6713      6711      6723      6725      6713      6711      6723      6726
      6714      6717      6718      6719      6714      6717      6718      6720
      6715      6714      6717      6718      6716      6714      6717      6718
      6717      6718      6720      6721      6717      6718      6720      6722
      6717      6718      6720      6770      6718      6720      6770      6771
      6718      6720      6770      6772      6718      6720      6770      6773
      6719      6718      6720      6721      6719      6718      6720      6722
      6719      6718      6720      6770      6720      6770      6773      6774
      6720      6770      6773      6775      6720      6770      6773      6776
      6721      6720      6770      6771      6721      6720      6770      6772
      6721      6720      6770      6773      6722      6720      6770      6771
      6722      6720      6770      6772      6722      6720      6770      6773
      6723      6726      6729      6730      6723      6726      6729      6731
      6723      6726      6729      6732      6724      6723      6726      6727
      6724      6723      6726      6728      6724      6723      6726      6729
      6725      6723      6726      6727      6725      6723      6726      6728
      6725      6723      6726      6729      6726      6729      6732      6733
      6726      6729      6732      6734      6726      6729      6732      6735
      6727      6726      6729      6730      6727      6726      6729      6731
      6727      6726      6729      6732      6728      6726      6729      6730
      6728      6726      6729      6731      6728      6726      6729      6732
      6729      6732      6735      6736      6729      6732      6735      6737
      6729      6732      6735      6738      6730      6729      6732      6733
      6730      6729      6732      6734      6730      6729      6732      6735
      6731      6729      6732      6733      6731      6729      6732      6734
      6731      6729      6732      6735      6732      6735      6738      6739
      6732      6735      6738      6740      6732      6735      6738      6741
      6733      6732      6735      6736      6733      6732      6735      6737
      6733      6732      6735      6738      6734      6732      6735      6736
      6734      6732      6735      6737      6734      6732      6735      6738
      6735      6738      6741      6742      6735      6738      6741      6743
      6736      6735      6738      6739      6736      6735      6738      6740
      6736      6735      6738      6741      6737      6735      6738      6739
      6737      6735      6738      6740      6737      6735      6738      6741
      6738      6741      6743      6744      6738      6741      6743      6745
      6739      6738      6741      6742      6739      6738      6741      6743
      6740      6738      6741      6742      6740      6738      6741      6743
      6741      6743      6745      6746      6741      6743      6745      6747
      6741      6743      6745      6748      6742      6741      6743      6744
      6742      6741      6743      6745      6743      6745      6748      6749
      6743      6745      6748      6750      6743      6745      6748      6751
      6744      6743      6745      6746      6744      6743      6745      6747
      6744      6743      6745      6748      6745      6748      6751      6752
      6745      6748      6751      6753      6745      6748      6751      6754
      6746      6745      6748      6749      6746      6745      6748      6750
      6746      6745      6748      6751      6747      6745      6748      6749
      6747      6745      6748      6750      6747      6745      6748      6751
      6748      6751      6754      6755      6748      6751      6754      6756
      6748      6751      6754      6757      6749      6748      6751      6752
      6749      6748      6751      6753      6749      6748      6751      6754
      6750      6748      6751      6752      6750      6748      6751      6753
      6750      6748      6751      6754      6751      6754      6757      6758
      6751      6754      6757      6759      6751      6754      6757      6760
      6752      6751      6754      6755      6752      6751      6754      6756
      6752      6751      6754      6757      6753      6751      6754      6755
      6753      6751      6754      6756      6753      6751      6754      6757
      6754      6757      6760      6761      6754      6757      6760      6762
      6754      6757      6760      6763      6755      6754      6757      6758
      6755      6754      6757      6759      6755      6754      6757      6760
      6756      6754      6757      6758      6756      6754      6757      6759
      6756      6754      6757      6760      6757      6760      6763      6764
      6757      6760      6763      6765      6757      6760      6763      6766
      6758      6757      6760      6761      6758      6757      6760      6762
      6758      6757      6760      6763      6759      6757      6760      6761
      6759      6757      6760      6762      6759      6757      6760      6763
      6760      6763      6766      6767      6760      6763      6766      6768
      6760      6763      6766      6769      6761      6760      6763      6764
      6761      6760      6763      6765      6761      6760      6763      6766
      6762      6760      6763      6764      6762      6760      6763      6765
      6762      6760      6763      6766      6764      6763      6766      6767
      6764      6763      6766      6768      6764      6763      6766      6769
      6765      6763      6766      6767      6765      6763      6766      6768
      6765      6763      6766      6769      6770      6773      6776      6777
      6770      6773      6776      6778      6770      6773      6776      6779
      6771      6770      6773      6774      6771      6770      6773      6775
      6771      6770      6773      6776      6772      6770      6773      6774
      6772      6770      6773      6775      6772      6770      6773      6776
      6773      6776      6779      6780      6773      6776      6779      6781
      6773      6776      6779      6782      6774      6773      6776      6777
      6774      6773      6776      6778      6774      6773      6776      6779
      6775      6773      6776      6777      6775      6773      6776      6778
      6775      6773      6776      6779      6776      6779      6782      6783
      6776      6779      6782      6784      6776      6779      6782      6785
      6777      6776      6779      6780      6777      6776      6779      6781
      6777      6776      6779      6782      6778      6776      6779      6780
      6778      6776      6779      6781      6778      6776      6779      6782
      6779      6782      6785      6786      6779      6782      6785      6787
      6779      6782      6785      6788      6780      6779      6782      6783
      6780      6779      6782      6784      6780      6779      6782      6785
      6781      6779      6782      6783      6781      6779      6782      6784
      6781      6779      6782      6785      6782      6785      6788      6789
      6782      6785      6788      6790      6783      6782      6785      6786
      6783      6782      6785      6787      6783      6782      6785      6788
      6784      6782      6785      6786      6784      6782      6785      6787
      6784      6782      6785      6788      6785      6788      6790      6791
      6785      6788      6790      6792      6786      6785      6788      6789
      6786      6785      6788      6790      6787      6785      6788      6789
      6787      6785      6788      6790      6788      6790      6792      6793
      6788      6790      6792      6794      6788      6790      6792      6795
      6789      6788      6790      6791      6789      6788      6790      6792
      6790      6792      6795      6796      6790      6792      6795      6797
      6790      6792      6795      6798      6791      6790      6792      6793
      6791      6790      6792      6794      6791      6790      6792      6795
      6792      6795      6798      6799      6792      6795      6798      6800
      6792      6795      6798      6801      6793      6792      6795      6796
      6793      6792      6795      6797      6793      6792      6795      6798
      6794      6792      6795      6796      6794      6792      6795      6797
      6794      6792      6795      6798      6795      6798      6801      6802
      6795      6798      6801      6803      6795      6798      6801      6804
      6796      6795      6798      6799      6796      6795      6798      6800
      6796      6795      6798      6801      6797      6795      6798      6799
      6797      6795      6798      6800      6797      6795      6798      6801
      6798      6801      6804      6805      6798      6801      6804      6806
      6798      6801      6804      6807      6799      6798      6801      6802
      6799      6798      6801      6803      6799      6798      6801      6804
      6800      6798      6801      6802      6800      6798      6801      6803
      6800      6798      6801      6804      6801      6804      6807      6808
      6801      6804      6807      6809      6801      6804      6807      6810
      6802      6801      6804      6805      6802      6801      6804      6806
      6802      6801      6804      6807      6803      6801      6804      6805
      6803      6801      6804      6806      6803      6801      6804      6807
      6804      6807      6810      6811      6804      6807      6810      6812
      6804      6807      6810      6813      6805      6804      6807      6808
      6805      6804      6807      6809      6805      6804      6807      6810
      6806      6804      6807      6808      6806      6804      6807      6809
      6806      6804      6807      6810      6807      6810      6813      6814
      6807      6810      6813      6815      6807      6810      6813      6816
      6808      6807      6810      6811      6808      6807      6810      6812
      6808      6807      6810      6813      6809      6807      6810      6811
      6809      6807      6810      6812      6809      6807      6810      6813
      6811      6810      6813      6814      6811      6810      6813      6815
      6811      6810      6813      6816      6812      6810      6813      6814
      6812      6810      6813      6815      6812      6810      6813      6816
      6817      6821      6824      6825      6817      6821      6824      6855
      6817      6863      6860      6855      6817      6863      6860      6861
      6817      6863      6860      6862      6818      6817      6819      6820
      6818      6817      6821      6822      6818      6817      6821      6823
      6818      6817      6821      6824      6818      6817      6863      6860
      6818      6817      6863      6864      6818      6817      6863      6865
      6819      6817      6821      6822      6819      6817      6821      6823
      6819      6817      6821      6824      6819      6817      6863      6860
      6819      6817      6863      6864      6819      6817      6863      6865
      6820      6819      6817      6821      6820      6819      6817      6863
      6821      6817      6863      6860      6821      6817      6863      6864
      6821      6817      6863      6865      6821      6824      6825      6826
      6821      6824      6825      6827      6821      6824      6855      6853
      6821      6824      6855      6856      6821      6824      6855      6860
      6822      6821      6817      6863      6822      6821      6824      6825
      6822      6821      6824      6855      6823      6821      6817      6863
      6823      6821      6824      6825      6823      6821      6824      6855
      6824      6821      6817      6863      6824      6825      6827      6828
      6824      6825      6827      6829      6824      6825      6827      6830
      6824      6855      6853      6830      6824      6855      6853      6850
      6824      6855      6853      6854      6824      6855      6856      6857
      6824      6855      6856      6858      6824      6855      6856      6859
      6824      6855      6860      6861      6824      6855      6860      6862
      6824      6855      6860      6863      6825      6824      6855      6853
      6825      6824      6855      6856      6825      6824      6855      6860
      6825      6827      6830      6831      6825      6827      6830      6832
      6825      6827      6830      6853      6826      6825      6824      6855
      6826      6825      6827      6828      6826      6825      6827      6829
      6826      6825      6827      6830      6827      6825      6824      6855
      6827      6830      6832      6833      6827      6830      6832      6834
      6827      6830      6832      6842      6827      6830      6853      6850
      6827      6830      6853      6854      6827      6830      6853      6855
      6828      6827      6830      6831      6828      6827      6830      6832
      6828      6827      6830      6853      6829      6827      6830      6831
      6829      6827      6830      6832      6829      6827      6830      6853
      6830      6832      6834      6835      6830      6832      6834      6836
      6830      6832      6834      6837      6830      6832      6842      6840
      6830      6832      6842      6843      6830      6832      6842      6847
      6830      6853      6850      6847      6830      6853      6850      6851
      6830      6853      6850      6852      6830      6853      6855      6856
      6830      6853      6855      6860      6831      6830      6832      6833
      6831      6830      6832      6834      6831      6830      6832      6842
      6831      6830      6853      6850      6831      6830      6853      6854
      6831      6830      6853      6855      6832      6830      6853      6850
      6832      6830      6853      6854      6832      6830      6853      6855
      6832      6834      6837      6838      6832      6834      6837      6839
      6832      6834      6837      6840      6832      6842      6840      6837
      6832      6842      6840      6841      6832      6842      6840      6866
      6832      6842      6843      6844      6832      6842      6843      6845
      6832      6842      6843      6846      6832      6842      6847      6848
      6832      6842      6847      6849      6832      6842      6847      6850
      6833      6832      6830      6853      6833      6832      6834      6835
      6833      6832      6834      6836      6833      6832      6834      6837
      6833      6832      6842      6840      6833      6832      6842      6843
      6833      6832      6842      6847      6834      6832      6830      6853
      6834      6832      6842      6840      6834      6832      6842      6843
      6834      6832      6842      6847      6834      6837      6840      6841
      6834      6837      6840      6842      6834      6837      6840      6866
      6835      6834      6832      6842      6835      6834      6837      6838
      6835      6834      6837      6839      6835      6834      6837      6840
      6836      6834      6832      6842      6836      6834      6837      6838
      6836      6834      6837      6839      6836      6834      6837      6840
      6837      6834      6832      6842      6837      6840      6842      6843
      6837      6840      6842      6847      6837      6840      6866      6867
      6837      6840      6866      6868      6837      6840      6866      6872
      6838      6837      6840      6841      6838      6837      6840      6842
      6838      6837      6840      6866      6839      6837      6840      6841
      6839      6837      6840      6842      6839      6837      6840      6866
      6840      6842      6843      6844      6840      6842      6843      6845
      6840      6842      6843      6846      6840      6842      6847      6848
      6840      6842      6847      6849      6840      6842      6847      6850
      6840      6866      6868      6869      6840      6866      6868      6870
      6840      6866      6868      6871      6840      6866      6872      6873
      6840      6866      6872      6874      6840      6866      6872      6875
      6841      6840      6842      6843      6841      6840      6842      6847
      6841      6840      6866      6867      6841      6840      6866      6868
      6841      6840      6866      6872      6842      6832      6830      6853
      6842      6840      6866      6867      6842      6840      6866      6868
      6842      6840      6866      6872      6842      6847      6850      6851
      6842      6847      6850      6852      6842      6847      6850      6853
      6843      6842      6840      6866      6843      6842      6847      6848
      6843      6842      6847      6849      6843      6842      6847      6850
      6844      6843      6842      6847      6845      6843      6842      6847
      6846      6843      6842      6847      6847      6842      6840      6866
      6847      6850      6853      6854      6847      6850      6853      6855
      6848      6847      6850      6851      6848      6847      6850      6852
      6848      6847      6850      6853      6849      6847      6850      6851
      6849      6847      6850      6852      6849      6847      6850      6853
      6850      6853      6855      6856      6850      6853      6855      6860
      6851      6850      6853      6854      6851      6850      6853      6855
      6852      6850      6853      6854      6852      6850      6853      6855
      6853      6855      6856      6857      6853      6855      6856      6858
      6853      6855      6856      6859      6853      6855      6860      6861
      6853      6855      6860      6862      6853      6855      6860      6863
      6854      6853      6855      6856      6854      6853      6855      6860
      6855      6860      6863      6864      6855      6860      6863      6865
      6856      6855      6860      6861      6856      6855      6860      6862
      6856      6855      6860      6863      6857      6856      6855      6860
      6858      6856      6855      6860      6859      6856      6855      6860
      6861      6860      6863      6864      6861      6860      6863      6865
      6862      6860      6863      6864      6862      6860      6863      6865
      6866      6872      6875      6876      6866      6872      6875      6877
      6866      6872      6875      6878      6867      6866      6868      6869
      6867      6866      6868      6870      6867      6866      6868      6871
      6867      6866      6872      6873      6867      6866      6872      6874
      6867      6866      6872      6875      6868      6866      6872      6873
      6868      6866      6872      6874      6868      6866      6872      6875
      6869      6868      6866      6872      6870      6868      6866      6872
      6871      6868      6866      6872      6872      6875      6878      6879
      6872      6875      6878      6880      6872      6875      6878      6881
      6873      6872      6875      6876      6873      6872      6875      6877
      6873      6872      6875      6878      6874      6872      6875      6876
      6874      6872      6875      6877      6874      6872      6875      6878
      6875      6878      6881      6882      6875      6878      6881      6883
      6875      6878      6881      6887      6876      6875      6878      6879
      6876      6875      6878      6880      6876      6875      6878      6881
      6877      6875      6878      6879      6877      6875      6878      6880
      6877      6875      6878      6881      6878      6881      6883      6884
      6878      6881      6883      6885      6878      6881      6883      6886
      6878      6881      6887      6888      6878      6881      6887      6889
      6878      6881      6887      6890      6879      6878      6881      6882
      6879      6878      6881      6883      6879      6878      6881      6887
      6880      6878      6881      6882      6880      6878      6881      6883
      6880      6878      6881      6887      6882      6881      6883      6884
      6882      6881      6883      6885      6882      6881      6883      6886
      6882      6881      6887      6888      6882      6881      6887      6889
      6882      6881      6887      6890      6883      6881      6887      6888
      6883      6881      6887      6889      6883      6881      6887      6890
      6884      6883      6881      6887      6885      6883      6881      6887
      6886      6883      6881      6887      6891      6895      6898      6899
      6891      6895      6898      6900      6891      6895      6898      6905
      6892      6891      6895      6896      6892      6891      6895      6897
      6892      6891      6895      6898      6893      6891      6895      6896
      6893      6891      6895      6897      6893      6891      6895      6898
      6894      6891      6895      6896      6894      6891      6895      6897
      6894      6891      6895      6898      6895      6898      6905      6901
      6896      6895      6898      6899      6896      6895      6898      6900
      6896      6895      6898      6905      6897      6895      6898      6899
      6897      6895      6898      6900      6897      6895      6898      6905
      6898      6905      6901      6902      6898      6905      6901      6903
      6898      6905      6901      6904      6899      6898      6905      6901
      6900      6898      6905      6901      6901      6904      6906      6907
      6901      6904      6906      6908      6901      6904      6906      6909
      6902      6901      6904      6906      6903      6901      6904      6906
      6904      6906      6909      6910      6904      6906      6909      6911
      6904      6906      6909      6917      6905      6901      6904      6906
      6906      6909      6911      6912      6906      6909      6917      6918
      6906      6909      6917      6919      6906      6909      6917      6920
      6907      6906      6909      6910      6907      6906      6909      6911
      6907      6906      6909      6917      6908      6906      6909      6910
      6908      6906      6909      6911      6908      6906      6909      6917
      6909      6911      6912      6913      6909      6911      6912      6914
      6909      6917      6920      6921      6910      6909      6911      6912
      6910      6909      6917      6918      6910      6909      6917      6919
      6910      6909      6917      6920      6911      6909      6917      6918
      6911      6909      6917      6919      6911      6909      6917      6920
      6911      6912      6914      6915      6911      6912      6914      6916
      6911      6912      6914      6926      6912      6911      6909      6917
      6912      6914      6926      6927      6912      6914      6926      6928
      6912      6914      6926      6929      6913      6912      6914      6915
      6913      6912      6914      6916      6913      6912      6914      6926
      6914      6926      6929      6930      6914      6926      6929      6931
      6914      6926      6929      6932      6915      6914      6926      6927
      6915      6914      6926      6928      6915      6914      6926      6929
      6916      6914      6926      6927      6916      6914      6926      6928
      6916      6914      6926      6929      6917      6920      6921      6922
      6917      6920      6921      6923      6918      6917      6920      6921
      6919      6917      6920      6921      6920      6921      6923      6924
      6920      6921      6923      6925      6920      6921      6923      6973
      6921      6923      6973      6974      6921      6923      6973      6975
      6921      6923      6973      6976      6922      6921      6923      6924
      6922      6921      6923      6925      6922      6921      6923      6973
      6923      6973      6976      6977      6923      6973      6976      6978
      6923      6973      6976      6979      6924      6923      6973      6974
      6924      6923      6973      6975      6924      6923      6973      6976
      6925      6923      6973      6974      6925      6923      6973      6975
      6925      6923      6973      6976      6926      6929      6932      6933
      6926      6929      6932      6934      6926      6929      6932      6935
      6927      6926      6929      6930      6927      6926      6929      6931
      6927      6926      6929      6932      6928      6926      6929      6930
      6928      6926      6929      6931      6928      6926      6929      6932
      6929      6932      6935      6936      6929      6932      6935      6937
      6929      6932      6935      6938      6930      6929      6932      6933
      6930      6929      6932      6934      6930      6929      6932      6935
      6931      6929      6932      6933      6931      6929      6932      6934
      6931      6929      6932      6935      6932      6935      6938      6939
      6932      6935      6938      6940      6932      6935      6938      6941
      6933      6932      6935      6936      6933      6932      6935      6937
      6933      6932      6935      6938      6934      6932      6935      6936
      6934      6932      6935      6937      6934      6932      6935      6938
      6935      6938      6941      6942      6935      6938      6941      6943
      6935      6938      6941      6944      6936      6935      6938      6939
      6936      6935      6938      6940      6936      6935      6938      6941
      6937      6935      6938      6939      6937      6935      6938      6940
      6937      6935      6938      6941      6938      6941      6944      6945
      6938      6941      6944      6946      6939      6938      6941      6942
      6939      6938      6941      6943      6939      6938      6941      6944
      6940      6938      6941      6942      6940      6938      6941      6943
      6940      6938      6941      6944      6941      6944      6946      6947
      6941      6944      6946      6948      6942      6941      6944      6945
      6942      6941      6944      6946      6943      6941      6944      6945
      6943      6941      6944      6946      6944      6946      6948      6949
      6944      6946      6948      6950      6944      6946      6948      6951
      6945      6944      6946      6947      6945      6944      6946      6948
      6946      6948      6951      6952      6946      6948      6951      6953
      6946      6948      6951      6954      6947      6946      6948      6949
      6947      6946      6948      6950      6947      6946      6948      6951
      6948      6951      6954      6955      6948      6951      6954      6956
      6948      6951      6954      6957      6949      6948      6951      6952
      6949      6948      6951      6953      6949      6948      6951      6954
      6950      6948      6951      6952      6950      6948      6951      6953
      6950      6948      6951      6954      6951      6954      6957      6958
      6951      6954      6957      6959      6951      6954      6957      6960
      6952      6951      6954      6955      6952      6951      6954      6956
      6952      6951      6954      6957      6953      6951      6954      6955
      6953      6951      6954      6956      6953      6951      6954      6957
      6954      6957      6960      6961      6954      6957      6960      6962
      6954      6957      6960      6963      6955      6954      6957      6958
      6955      6954      6957      6959      6955      6954      6957      6960
      6956      6954      6957      6958      6956      6954      6957      6959
      6956      6954      6957      6960      6957      6960      6963      6964
      6957      6960      6963      6965      6957      6960      6963      6966
      6958      6957      6960      6961      6958      6957      6960      6962
      6958      6957      6960      6963      6959      6957      6960      6961
      6959      6957      6960      6962      6959      6957      6960      6963
      6960      6963      6966      6967      6960      6963      6966      6968
      6960      6963      6966      6969      6961      6960      6963      6964
      6961      6960      6963      6965      6961      6960      6963      6966
      6962      6960      6963      6964      6962      6960      6963      6965
      6962      6960      6963      6966      6963      6966      6969      6970
      6963      6966      6969      6971      6963      6966      6969      6972
      6964      6963      6966      6967      6964      6963      6966      6968
      6964      6963      6966      6969      6965      6963      6966      6967
      6965      6963      6966      6968      6965      6963      6966      6969
      6967      6966      6969      6970      6967      6966      6969      6971
      6967      6966      6969      6972      6968      6966      6969      6970
      6968      6966      6969      6971      6968      6966      6969      6972
      6973      6976      6979      6980      6973      6976      6979      6981
      6973      6976      6979      6982      6974      6973      6976      6977
      6974      6973      6976      6978      6974      6973      6976      6979
      6975      6973      6976      6977      6975      6973      6976      6978
      6975      6973      6976      6979      6976      6979      6982      6983
      6976      6979      6982      6984      6976      6979      6982      6985
      6977      6976      6979      6980      6977      6976      6979      6981
      6977      6976      6979      6982      6978      6976      6979      6980
      6978      6976      6979      6981      6978      6976      6979      6982
      6979      6982      6985      6986      6979      6982      6985      6987
      6979      6982      6985      6988      6980      6979      6982      6983
      6980      6979      6982      6984      6980      6979      6982      6985
      6981      6979      6982      6983      6981      6979      6982      6984
      6981      6979      6982      6985      6982      6985      6988      6989
      6982      6985      6988      6990      6982      6985      6988      6991
      6983      6982      6985      6986      6983      6982      6985      6987
      6983      6982      6985      6988      6984      6982      6985      6986
      6984      6982      6985      6987      6984      6982      6985      6988
      6985      6988      6991      6992      6985      6988      6991      6993
      6986      6985      6988      6989      6986      6985      6988      6990
      6986      6985      6988      6991      6987      6985      6988      6989
      6987      6985      6988      6990      6987      6985      6988      6991
      6988      6991      6993      6994      6988      6991      6993      6995
      6989      6988      6991      6992      6989      6988      6991      6993
      6990      6988      6991      6992      6990      6988      6991      6993
      6991      6993      6995      6996      6991      6993      6995      6997
      6991      6993      6995      6998      6992      6991      6993      6994
      6992      6991      6993      6995      6993      6995      6998      6999
      6993      6995      6998      7000      6993      6995      6998      7001
      6994      6993      6995      6996      6994      6993      6995      6997
      6994      6993      6995      6998      6995      6998      7001      7002
      6995      6998      7001      7003      6995      6998      7001      7004
      6996      6995      6998      6999      6996      6995      6998      7000
      6996      6995      6998      7001      6997      6995      6998      6999
      6997      6995      6998      7000      6997      6995      6998      7001
      6998      7001      7004      7005      6998      7001      7004      7006
      6998      7001      7004      7007      6999      6998      7001      7002
      6999      6998      7001      7003      6999      6998      7001      7004
      7000      6998      7001      7002      7000      6998      7001      7003
      7000      6998      7001      7004      7001      7004      7007      7008
      7001      7004      7007      7009      7001      7004      7007      7010
      7002      7001      7004      7005      7002      7001      7004      7006
      7002      7001      7004      7007      7003      7001      7004      7005
      7003      7001      7004      7006      7003      7001      7004      7007
      7004      7007      7010      7011      7004      7007      7010      7012
      7004      7007      7010      7013      7005      7004      7007      7008
      7005      7004      7007      7009      7005      7004      7007      7010
      7006      7004      7007      7008      7006      7004      7007      7009
      7006      7004      7007      7010      7007      7010      7013      7014
      7007      7010      7013      7015      7007      7010      7013      7016
      7008      7007      7010      7011      7008      7007      7010      7012
      7008      7007      7010      7013      7009      7007      7010      7011
      7009      7007      7010      7012      7009      7007      7010      7013
      7010      7013      7016      7017      7010      7013      7016      7018
      7010      7013      7016      7019      7011      7010      7013      7014
      7011      7010      7013      7015      7011      7010      7013      7016
      7012      7010      7013      7014      7012      7010      7013      7015
      7012      7010      7013      7016      7014      7013      7016      7017
      7014      7013      7016      7018      7014      7013      7016      7019
      7015      7013      7016      7017      7015      7013      7016      7018
      7015      7013      7016      7019      7020      7024      7027      7028
      7020      7024      7027      7058      7020      7066      7063      7058
      7020      7066      7063      7064      7020      7066      7063      7065
      7021      7020      7022      7023      7021      7020      7024      7025
      7021      7020      7024      7026      7021      7020      7024      7027
      7021      7020      7066      7063      7021      7020      7066      7067
      7021      7020      7066      7068      7022      7020      7024      7025
      7022      7020      7024      7026      7022      7020      7024      7027
      7022      7020      7066      7063      7022      7020      7066      7067
      7022      7020      7066      7068      7023      7022      7020      7024
      7023      7022      7020      7066      7024      7020      7066      7063
      7024      7020      7066      7067      7024      7020      7066      7068
      7024      7027      7028      7029      7024      7027      7028      7030
      7024      7027      7058      7056      7024      7027      7058      7059
      7024      7027      7058      7063      7025      7024      7020      7066
      7025      7024      7027      7028      7025      7024      7027      7058
      7026      7024      7020      7066      7026      7024      7027      7028
      7026      7024      7027      7058      7027      7024      7020      7066
      7027      7028      7030      7031      7027      7028      7030      7032
      7027      7028      7030      7033      7027      7058      7056      7033
      7027      7058      7056      7053      7027      7058      7056      7057
      7027      7058      7059      7060      7027      7058      7059      7061
      7027      7058      7059      7062      7027      7058      7063      7064
      7027      7058      7063      7065      7027      7058      7063      7066
      7028      7027      7058      7056      7028      7027      7058      7059
      7028      7027      7058      7063      7028      7030      7033      7034
      7028      7030      7033      7035      7028      7030      7033      7056
      7029      7028      7027      7058      7029      7028      7030      7031
      7029      7028      7030      7032      7029      7028      7030      7033
      7030      7028      7027      7058      7030      7033      7035      7036
      7030      7033      7035      7037      7030      7033      7035      7045
      7030      7033      7056      7053      7030      7033      7056      7057
      7030      7033      7056      7058      7031      7030      7033      7034
      7031      7030      7033      7035      7031      7030      7033      7056
      7032      7030      7033      7034      7032      7030      7033      7035
      7032      7030      7033      7056      7033      7035      7037      7038
      7033      7035      7037      7039      7033      7035      7037      7040
      7033      7035      7045      7043      7033      7035      7045      7046
      7033      7035      7045      7050      7033      7056      7053      7050
      7033      7056      7053      7054      7033      7056      7053      7055
      7033      7056      7058      7059      7033      7056      7058      7063
      7034      7033      7035      7036      7034      7033      7035      7037
      7034      7033      7035      7045      7034      7033      7056      7053
      7034      7033      7056      7057      7034      7033      7056      7058
      7035      7033      7056      7053      7035      7033      7056      7057
      7035      7033      7056      7058      7035      7037      7040      7041
      7035      7037      7040      7042      7035      7037      7040      7043
      7035      7045      7043      7040      7035      7045      7043      7044
      7035      7045      7043      7069      7035      7045      7046      7047
      7035      7045      7046      7048      7035      7045      7046      7049
      7035      7045      7050      7051      7035      7045      7050      7052
      7035      7045      7050      7053      7036      7035      7033      7056
      7036      7035      7037      7038      7036      7035      7037      7039
      7036      7035      7037      7040      7036      7035      7045      7043
      7036      7035      7045      7046      7036      7035      7045      7050
      7037      7035      7033      7056      7037      7035      7045      7043
      7037      7035      7045      7046      7037      7035      7045      7050
      7037      7040      7043      7044      7037      7040      7043      7045
      7037      7040      7043      7069      7038      7037      7035      7045
      7038      7037      7040      7041      7038      7037      7040      7042
      7038      7037      7040      7043      7039      7037      7035      7045
      7039      7037      7040      7041      7039      7037      7040      7042
      7039      7037      7040      7043      7040      7037      7035      7045
      7040      7043      7045      7046      7040      7043      7045      7050
      7040      7043      7069      7070      7040      7043      7069      7071
      7040      7043      7069      7075      7041      7040      7043      7044
      7041      7040      7043      7045      7041      7040      7043      7069
      7042      7040      7043      7044      7042      7040      7043      7045
      7042      7040      7043      7069      7043      7045      7046      7047
      7043      7045      7046      7048      7043      7045      7046      7049
      7043      7045      7050      7051      7043      7045      7050      7052
      7043      7045      7050      7053      7043      7069      7071      7072
      7043      7069      7071      7073      7043      7069      7071      7074
      7043      7069      7075      7076      7043      7069      7075      7077
      7043      7069      7075      7078      7044      7043      7045      7046
      7044      7043      7045      7050      7044      7043      7069      7070
      7044      7043      7069      7071      7044      7043      7069      7075
      7045      7035      7033      7056      7045      7043      7069      7070
      7045      7043      7069      7071      7045      7043      7069      7075
      7045      7050      7053      7054      7045      7050      7053      7055
      7045      7050      7053      7056      7046      7045      7043      7069
      7046      7045      7050      7051      7046      7045      7050      7052
      7046      7045      7050      7053      7047      7046      7045      7050
      7048      7046      7045      7050      7049      7046      7045      7050
      7050      7045      7043      7069      7050      7053      7056      7057
      7050      7053      7056      7058      7051      7050      7053      7054
      7051      7050      7053      7055      7051      7050      7053      7056
      7052      7050      7053      7054      7052      7050      7053      7055
      7052      7050      7053      7056      7053      7056      7058      7059
      7053      7056      7058      7063      7054      7053      7056      7057
      7054      7053      7056      7058      7055      7053      7056      7057
      7055      7053      7056      7058      7056      7058      7059      7060
      7056      7058      7059      7061      7056      7058      7059      7062
      7056      7058      7063      7064      7056      7058      7063      7065
      7056      7058      7063      7066      7057      7056      7058      7059
      7057      7056      7058      7063      7058      7063      7066      7067
      7058      7063      7066      7068      7059      7058      7063      7064
      7059      7058      7063      7065      7059      7058      7063      7066
      7060      7059      7058      7063      7061      7059      7058      7063
      7062      7059      7058      7063      7064      7063      7066      7067
      7064      7063      7066      7068      7065      7063      7066      7067
      7065      7063      7066      7068      7069      7075      7078      7079
      7069      7075      7078      7080      7069      7075      7078      7081
      7070      7069      7071      7072      7070      7069      7071      7073
      7070      7069      7071      7074      7070      7069      7075      7076
      7070      7069      7075      7077      7070      7069      7075      7078
      7071      7069      7075      7076      7071      7069      7075      7077
      7071      7069      7075      7078      7072      7071      7069      7075
      7073      7071      7069      7075      7074      7071      7069      7075
      7075      7078      7081      7082      7075      7078      7081      7083
      7075      7078      7081      7084      7076      7075      7078      7079
      7076      7075      7078      7080      7076      7075      7078      7081
      7077      7075      7078      7079      7077      7075      7078      7080
      7077      7075      7078      7081      7078      7081      7084      7085
      7078      7081      7084      7086      7078      7081      7084      7090
      7079      7078      7081      7082      7079      7078      7081      7083
      7079      7078      7081      7084      7080      7078      7081      7082
      7080      7078      7081      7083      7080      7078      7081      7084
      7081      7084      7086      7087      7081      7084      7086      7088
      7081      7084      7086      7089      7081      7084      7090      7091
      7081      7084      7090      7092      7081      7084      7090      7093
      7082      7081      7084      7085      7082      7081      7084      7086
      7082      7081      7084      7090      7083      7081      7084      7085
      7083      7081      7084      7086      7083      7081      7084      7090
      7085      7084      7086      7087      7085      7084      7086      7088
      7085      7084      7086      7089      7085      7084      7090      7091
      7085      7084      7090      7092      7085      7084      7090      7093
      7086      7084      7090      7091      7086      7084      7090      7092
      7086      7084      7090      7093      7087      7086      7084      7090
      7088      7086      7084      7090      7089      7086      7084      7090
      7094      7095      7110      7111      7094      7095      7110      7112
      7094      7095      7110      7116      7095      7094      7098      7099
      7095      7094      7098      7100      7095      7094      7098      7101
      7095      7094      7102      7103      7095      7094      7102      7104
      7095      7094      7102      7105      7095      7094      7106      7107
      7095      7094      7106      7108      7095      7094      7106      7109
      7095      7110      7116      7113      7096      7095      7094      7098
      7096      7095      7094      7102      7096      7095      7094      7106
      7096      7095      7110      7111      7096      7095      7110      7112
      7096      7095      7110      7116      7097      7095      7094      7098
      7097      7095      7094      7102      7097      7095      7094      7106
      7097      7095      7110      7111      7097      7095      7110      7112
      7097      7095      7110      7116      7098      7094      7095      7110
      7098      7094      7102      7103      7098      7094      7102      7104
      7098      7094      7102      7105      7098      7094      7106      7107
      7098      7094      7106      7108      7098      7094      7106      7109
      7099      7098      7094      7102      7099      7098      7094      7106
      7100      7098      7094      7102      7100      7098      7094      7106
      7101      7098      7094      7102      7101      7098      7094      7106
      7102      7094      7095      7110      7102      7094      7106      7107
      7102      7094      7106      7108      7102      7094      7106      7109
      7103      7102      7094      7106      7104      7102      7094      7106
      7105      7102      7094      7106      7106      7094      7095      7110
      7110      7116      7113      7114      7110      7116      7113      7115
      7110      7116      7113      7117      7111      7110      7116      7113
      7112      7110      7116      7113      7113      7117      7118      7119
      7113      7117      7118      7120      7113      7117      7118      7121
      7114      7113      7117      7118      7115      7113      7117      7118
      7116      7113      7117      7118      7117      7118      7121      7122
      7117      7118      7121      7123      7117      7118      7121      7129
      7118      7121      7123      7124      7118      7121      7129      7130
      7118      7121      7129      7131      7118      7121      7129      7132
      7119      7118      7121      7122      7119      7118      7121      7123
      7119      7118      7121      7129      7120      7118      7121      7122
      7120      7118      7121      7123      7120      7118      7121      7129
      7121      7123      7124      7125      7121      7123      7124      7126
      7121      7129      7132      7133      7122      7121      7123      7124
      7122      7121      7129      7130      7122      7121      7129      7131
      7122      7121      7129      7132      7123      7121      7129      7130
      7123      7121      7129      7131      7123      7121      7129      7132
      7123      7124      7126      7127      7123      7124      7126      7128
      7123      7124      7126      7138      7124      7123      7121      7129
      7124      7126      7138      7139      7124      7126      7138      7140
      7124      7126      7138      7141      7125      7124      7126      7127
      7125      7124      7126      7128      7125      7124      7126      7138
      7126      7138      7141      7142      7126      7138      7141      7143
      7126      7138      7141      7144      7127      7126      7138      7139
      7127      7126      7138      7140      7127      7126      7138      7141
      7128      7126      7138      7139      7128      7126      7138      7140
      7128      7126      7138      7141      7129      7132      7133      7134
      7129      7132      7133      7135      7130      7129      7132      7133
      7131      7129      7132      7133      7132      7133      7135      7136
      7132      7133      7135      7137      7132      7133      7135      7185
      7133      7135      7185      7186      7133      7135      7185      7187
      7133      7135      7185      7188      7134      7133      7135      7136
      7134      7133      7135      7137      7134      7133      7135      7185
      7135      7185      7188      7189      7135      7185      7188      7190
      7135      7185      7188      7191      7136      7135      7185      7186
      7136      7135      7185      7187      7136      7135      7185      7188
      7137      7135      7185      7186      7137      7135      7185      7187
      7137      7135      7185      7188      7138      7141      7144      7145
      7138      7141      7144      7146      7138      7141      7144      7147
      7139      7138      7141      7142      7139      7138      7141      7143
      7139      7138      7141      7144      7140      7138      7141      7142
      7140      7138      7141      7143      7140      7138      7141      7144
      7141      7144      7147      7148      7141      7144      7147      7149
      7141      7144      7147      7150      7142      7141      7144      7145
      7142      7141      7144      7146      7142      7141      7144      7147
      7143      7141      7144      7145      7143      7141      7144      7146
      7143      7141      7144      7147      7144      7147      7150      7151
      7144      7147      7150      7152      7144      7147      7150      7153
      7145      7144      7147      7148      7145      7144      7147      7149
      7145      7144      7147      7150      7146      7144      7147      7148
      7146      7144      7147      7149      7146      7144      7147      7150
      7147      7150      7153      7154      7147      7150      7153      7155
      7147      7150      7153      7156      7148      7147      7150      7151
      7148      7147      7150      7152      7148      7147      7150      7153
      7149      7147      7150      7151      7149      7147      7150      7152
      7149      7147      7150      7153      7150      7153      7156      7157
      7150      7153      7156      7158      7151      7150      7153      7154
      7151      7150      7153      7155      7151      7150      7153      7156
      7152      7150      7153      7154      7152      7150      7153      7155
      7152      7150      7153      7156      7153      7156      7158      7159
      7153      7156      7158      7160      7154      7153      7156      7157
      7154      7153      7156      7158      7155      7153      7156      7157
      7155      7153      7156      7158      7156      7158      7160      7161
      7156      7158      7160      7162      7156      7158      7160      7163
      7157      7156      7158      7159      7157      7156      7158      7160
      7158      7160      7163      7164      7158      7160      7163      7165
      7158      7160      7163      7166      7159      7158      7160      7161
      7159      7158      7160      7162      7159      7158      7160      7163
      7160      7163      7166      7167      7160      7163      7166      7168
      7160      7163      7166      7169      7161      7160      7163      7164
      7161      7160      7163      7165      7161      7160      7163      7166
      7162      7160      7163      7164      7162      7160      7163      7165
      7162      7160      7163      7166      7163      7166      7169      7170
      7163      7166      7169      7171      7163      7166      7169      7172
      7164      7163      7166      7167      7164      7163      7166      7168
      7164      7163      7166      7169      7165      7163      7166      7167
      7165      7163      7166      7168      7165      7163      7166      7169
      7166      7169      7172      7173      7166      7169      7172      7174
      7166      7169      7172      7175      7167      7166      7169      7170
      7167      7166      7169      7171      7167      7166      7169      7172
      7168      7166      7169      7170      7168      7166      7169      7171
      7168      7166      7169      7172      7169      7172      7175      7176
      7169      7172      7175      7177      7169      7172      7175      7178
      7170      7169      7172      7173      7170      7169      7172      7174
      7170      7169      7172      7175      7171      7169      7172      7173
      7171      7169      7172      7174      7171      7169      7172      7175
      7172      7175      7178      7179      7172      7175      7178      7180
      7172      7175      7178      7181      7173      7172      7175      7176
      7173      7172      7175      7177      7173      7172      7175      7178
      7174      7172      7175      7176      7174      7172      7175      7177
      7174      7172      7175      7178      7175      7178      7181      7182
      7175      7178      7181      7183      7175      7178      7181      7184
      7176      7175      7178      7179      7176      7175      7178      7180
      7176      7175      7178      7181      7177      7175      7178      7179
      7177      7175      7178      7180      7177      7175      7178      7181
      7179      7178      7181      7182      7179      7178      7181      7183
      7179      7178      7181      7184      7180      7178      7181      7182
      7180      7178      7181      7183      7180      7178      7181      7184
      7185      7188      7191      7192      7185      7188      7191      7193
      7185      7188      7191      7194      7186      7185      7188      7189
      7186      7185      7188      7190      7186      7185      7188      7191
      7187      7185      7188      7189      7187      7185      7188      7190
      7187      7185      7188      7191      7188      7191      7194      7195
      7188      7191      7194      7196      7188      7191      7194      7197
      7189      7188      7191      7192      7189      7188      7191      7193
      7189      7188      7191      7194      7190      7188      7191      7192
      7190      7188      7191      7193      7190      7188      7191      7194
      7191      7194      7197      7198      7191      7194      7197      7199
      7191      7194      7197      7200      7192      7191      7194      7195
      7192      7191      7194      7196      7192      7191      7194      7197
      7193      7191      7194      7195      7193      7191      7194      7196
      7193      7191      7194      7197      7194      7197      7200      7201
      7194      7197      7200      7202      7194      7197      7200      7203
      7195      7194      7197      7198      7195      7194      7197      7199
      7195      7194      7197      7200      7196      7194      7197      7198
      7196      7194      7197      7199      7196      7194      7197      7200
      7197      7200      7203      7204      7197      7200      7203      7205
      7198      7197      7200      7201      7198      7197      7200      7202
      7198      7197      7200      7203      7199      7197      7200      7201
      7199      7197      7200      7202      7199      7197      7200      7203
      7200      7203      7205      7206      7200      7203      7205      7207
      7201      7200      7203      7204      7201      7200      7203      7205
      7202      7200      7203      7204      7202      7200      7203      7205
      7203      7205      7207      7208      7203      7205      7207      7209
      7203      7205      7207      7210      7204      7203      7205      7206
      7204      7203      7205      7207      7205      7207      7210      7211
      7205      7207      7210      7212      7205      7207      7210      7213
      7206      7205      7207      7208      7206      7205      7207      7209
      7206      7205      7207      7210      7207      7210      7213      7214
      7207      7210      7213      7215      7207      7210      7213      7216
      7208      7207      7210      7211      7208      7207      7210      7212
      7208      7207      7210      7213      7209      7207      7210      7211
      7209      7207      7210      7212      7209      7207      7210      7213
      7210      7213      7216      7217      7210      7213      7216      7218
      7210      7213      7216      7219      7211      7210      7213      7214
      7211      7210      7213      7215      7211      7210      7213      7216
      7212      7210      7213      7214      7212      7210      7213      7215
      7212      7210      7213      7216      7213      7216      7219      7220
      7213      7216      7219      7221      7213      7216      7219      7222
      7214      7213      7216      7217      7214      7213      7216      7218
      7214      7213      7216      7219      7215      7213      7216      7217
      7215      7213      7216      7218      7215      7213      7216      7219
      7216      7219      7222      7223      7216      7219      7222      7224
      7216      7219      7222      7225      7217      7216      7219      7220
      7217      7216      7219      7221      7217      7216      7219      7222
      7218      7216      7219      7220      7218      7216      7219      7221
      7218      7216      7219      7222      7219      7222      7225      7226
      7219      7222      7225      7227      7219      7222      7225      7228
      7220      7219      7222      7223      7220      7219      7222      7224
      7220      7219      7222      7225      7221      7219      7222      7223
      7221      7219      7222      7224      7221      7219      7222      7225
      7222      7225      7228      7229      7222      7225      7228      7230
      7222      7225      7228      7231      7223      7222      7225      7226
      7223      7222      7225      7227      7223      7222      7225      7228
      7224      7222      7225      7226      7224      7222      7225      7227
      7224      7222      7225      7228      7226      7225      7228      7229
      7226      7225      7228      7230      7226      7225      7228      7231
      7227      7225      7228      7229      7227      7225      7228      7230
      7227      7225      7228      7231      7232      7245      7248      7249
      7232      7245      7248      7250      7232      7245      7248      7255
      7233      7232      7237      7238      7233      7232      7237      7239
      7233      7232      7237      7240      7233      7232      7241      7242
      7233      7232      7241      7243      7233      7232      7241      7244
      7233      7232      7245      7246      7233      7232      7245      7247
      7233      7232      7245      7248      7234      7233      7232      7237
      7234      7233      7232      7241      7234      7233      7232      7245
      7235      7233      7232      7237      7235      7233      7232      7241
      7235      7233      7232      7245      7236      7233      7232      7237
      7236      7233      7232      7241      7236      7233      7232      7245
      7237      7232      7241      7242      7237      7232      7241      7243
      7237      7232      7241      7244      7237      7232      7245      7246
      7237      7232      7245      7247      7237      7232      7245      7248
      7238      7237      7232      7241      7238      7237      7232      7245
      7239      7237      7232      7241      7239      7237      7232      7245
      7240      7237      7232      7241      7240      7237      7232      7245
      7241      7232      7245      7246      7241      7232      7245      7247
      7241      7232      7245      7248      7242      7241      7232      7245
      7243      7241      7232      7245      7244      7241      7232      7245
      7245      7248      7255      7251      7246      7245      7248      7249
      7246      7245      7248      7250      7246      7245      7248      7255
      7247      7245      7248      7249      7247      7245      7248      7250
      7247      7245      7248      7255      7248      7255      7251      7252
      7248      7255      7251      7253      7248      7255      7251      7254
      7249      7248      7255      7251      7250      7248      7255      7251
      7251      7254      7256      7257      7251      7254      7256      7258
      7251      7254      7256      7261      7252      7251      7254      7256
      7253      7251      7254      7256      7254      7256      7261      7259
      7254      7256      7261      7262      7254      7256      7261      7263
      7255      7251      7254      7256      7256      7261      7259      7260
      7256      7261      7259      7311      7256      7261      7263      7264
      7256      7261      7263      7265      7256      7261      7263      7267
      7257      7256      7261      7259      7257      7256      7261      7262
      7257      7256      7261      7263      7258      7256      7261      7259
      7258      7256      7261      7262      7258      7256      7261      7263
      7259      7261      7263      7264      7259      7261      7263      7265
      7259      7261      7263      7267      7259      7311      7313      7314
      7259      7311      7313      7315      7259      7311      7313      7316
      7260      7259      7261      7262      7260      7259      7261      7263
      7260      7259      7311      7312      7260      7259      7311      7313
      7261      7259      7311      7312      7261      7259      7311      7313
      7261      7263      7265      7266      7261      7263      7267      7268
      7261      7263      7267      7269      7262      7261      7259      7311
      7262      7261      7263      7264      7262      7261      7263      7265
      7262      7261      7263      7267      7263      7261      7259      7311
      7263      7267      7269      7270      7263      7267      7269      7271
      7264      7263      7265      7266      7264      7263      7267      7268
      7264      7263      7267      7269      7265      7263      7267      7268
      7265      7263      7267      7269      7266      7265      7263      7267
      7267      7269      7271      7272      7267      7269      7271      7273
      7267      7269      7271      7274      7268      7267      7269      7270
      7268      7267      7269      7271      7269      7271      7274      7275
      7269      7271      7274      7276      7269      7271      7274      7277
      7270      7269      7271      7272      7270      7269      7271      7273
      7270      7269      7271      7274      7271      7274      7277      7278
      7271      7274      7277      7279      7271      7274      7277      7280
      7272      7271      7274      7275      7272      7271      7274      7276
      7272      7271      7274      7277      7273      7271      7274      7275
      7273      7271      7274      7276      7273      7271      7274      7277
      7274      7277      7280      7281      7274      7277      7280      7282
      7274      7277      7280      7283      7275      7274      7277      7278
      7275      7274      7277      7279      7275      7274      7277      7280
      7276      7274      7277      7278      7276      7274      7277      7279
      7276      7274      7277      7280      7277      7280      7283      7284
      7277      7280      7283      7285      7277      7280      7283      7286
      7278      7277      7280      7281      7278      7277      7280      7282
      7278      7277      7280      7283      7279      7277      7280      7281
      7279      7277      7280      7282      7279      7277      7280      7283
      7280      7283      7286      7287      7280      7283      7286      7288
      7280      7283      7286      7289      7281      7280      7283      7284
      7281      7280      7283      7285      7281      7280      7283      7286
      7282      7280      7283      7284      7282      7280      7283      7285
      7282      7280      7283      7286      7283      7286      7289      7290
      7283      7286      7289      7291      7283      7286      7289      7292
      7284      7283      7286      7287      7284      7283      7286      7288
      7284      7283      7286      7289      7285      7283      7286      7287
      7285      7283      7286      7288      7285      7283      7286      7289
      7286      7289      7292      7293      7286      7289      7292      7294
      7286      7289      7292      7295      7287      7286      7289      7290
      7287      7286      7289      7291      7287      7286      7289      7292
      7288      7286      7289      7290      7288      7286      7289      7291
      7288      7286      7289      7292      7289      7292      7295      7296
      7289      7292      7295      7297      7289      7292      7295      7298
      7290      7289      7292      7293      7290      7289      7292      7294
      7290      7289      7292      7295      7291      7289      7292      7293
      7291      7289      7292      7294      7291      7289      7292      7295
      7292      7295      7298      7299      7292      7295      7298      7300
      7292      7295      7298      7301      7293      7292      7295      7296
      7293      7292      7295      7297      7293      7292      7295      7298
      7294      7292      7295      7296      7294      7292      7295      7297
      7294      7292      7295      7298      7295      7298      7301      7302
      7295      7298      7301      7303      7295      7298      7301      7304
      7296      7295      7298      7299      7296      7295      7298      7300
      7296      7295      7298      7301      7297      7295      7298      7299
      7297      7295      7298      7300      7297      7295      7298      7301
      7298      7301      7304      7305      7298      7301      7304      7306
      7298      7301      7304      7307      7299      7298      7301      7302
      7299      7298      7301      7303      7299      7298      7301      7304
      7300      7298      7301      7302      7300      7298      7301      7303
      7300      7298      7301      7304      7301      7304      7307      7308
      7301      7304      7307      7309      7301      7304      7307      7310
      7302      7301      7304      7305      7302      7301      7304      7306
      7302      7301      7304      7307      7303      7301      7304      7305
      7303      7301      7304      7306      7303      7301      7304      7307
      7305      7304      7307      7308      7305      7304      7307      7309
      7305      7304      7307      7310      7306      7304      7307      7308
      7306      7304      7307      7309      7306      7304      7307      7310
      7311      7313      7316      7317      7311      7313      7316      7318
      7311      7313      7316      7319      7312      7311      7313      7314
      7312      7311      7313      7315      7312      7311      7313      7316
      7313      7316      7319      7320      7313      7316      7319      7321
      7313      7316      7319      7322      7314      7313      7316      7317
      7314      7313      7316      7318      7314      7313      7316      7319
      7315      7313      7316      7317      7315      7313      7316      7318
      7315      7313      7316      7319      7316      7319      7322      7323
      7316      7319      7322      7324      7316      7319      7322      7325
      7317      7316      7319      7320      7317      7316      7319      7321
      7317      7316      7319      7322      7318      7316      7319      7320
      7318      7316      7319      7321      7318      7316      7319      7322
      7319      7322      7325      7326      7319      7322      7325      7327
      7319      7322      7325      7328      7320      7319      7322      7323
      7320      7319      7322      7324      7320      7319      7322      7325
      7321      7319      7322      7323      7321      7319      7322      7324
      7321      7319      7322      7325      7322      7325      7328      7329
      7322      7325      7328      7330      7322      7325      7328      7331
      7323      7322      7325      7326      7323      7322      7325      7327
      7323      7322      7325      7328      7324      7322      7325      7326
      7324      7322      7325      7327      7324      7322      7325      7328
      7325      7328      7331      7332      7325      7328      7331      7333
      7325      7328      7331      7334      7326      7325      7328      7329
      7326      7325      7328      7330      7326      7325      7328      7331
      7327      7325      7328      7329      7327      7325      7328      7330
      7327      7325      7328      7331      7328      7331      7334      7335
      7328      7331      7334      7336      7328      7331      7334      7337
      7329      7328      7331      7332      7329      7328      7331      7333
      7329      7328      7331      7334      7330      7328      7331      7332
      7330      7328      7331      7333      7330      7328      7331      7334
      7331      7334      7337      7338      7331      7334      7337      7339
      7331      7334      7337      7340      7332      7331      7334      7335
      7332      7331      7334      7336      7332      7331      7334      7337
      7333      7331      7334      7335      7333      7331      7334      7336
      7333      7331      7334      7337      7334      7337      7340      7341
      7334      7337      7340      7342      7334      7337      7340      7343
      7335      7334      7337      7338      7335      7334      7337      7339
      7335      7334      7337      7340      7336      7334      7337      7338
      7336      7334      7337      7339      7336      7334      7337      7340
      7337      7340      7343      7344      7337      7340      7343      7345
      7337      7340      7343      7346      7338      7337      7340      7341
      7338      7337      7340      7342      7338      7337      7340      7343
      7339      7337      7340      7341      7339      7337      7340      7342
      7339      7337      7340      7343      7340      7343      7346      7347
      7340      7343      7346      7348      7340      7343      7346      7349
      7341      7340      7343      7344      7341      7340      7343      7345
      7341      7340      7343      7346      7342      7340      7343      7344
      7342      7340      7343      7345      7342      7340      7343      7346
      7343      7346      7349      7350      7343      7346      7349      7351
      7343      7346      7349      7352      7344      7343      7346      7347
      7344      7343      7346      7348      7344      7343      7346      7349
      7345      7343      7346      7347      7345      7343      7346      7348
      7345      7343      7346      7349      7346      7349      7352      7353
      7346      7349      7352      7354      7346      7349      7352      7355
      7347      7346      7349      7350      7347      7346      7349      7351
      7347      7346      7349      7352      7348      7346      7349      7350
      7348      7346      7349      7351      7348      7346      7349      7352
      7349      7352      7355      7356      7349      7352      7355      7357
      7349      7352      7355      7358      7350      7349      7352      7353
      7350      7349      7352      7354      7350      7349      7352      7355
      7351      7349      7352      7353      7351      7349      7352      7354
      7351      7349      7352      7355      7352      7355      7358      7359
      7352      7355      7358      7360      7352      7355      7358      7361
      7353      7352      7355      7356      7353      7352      7355      7357
      7353      7352      7355      7358      7354      7352      7355      7356
      7354      7352      7355      7357      7354      7352      7355      7358
      7355      7358      7361      7362      7355      7358      7361      7363
      7355      7358      7361      7364      7356      7355      7358      7359
      7356      7355      7358      7360      7356      7355      7358      7361
      7357      7355      7358      7359      7357      7355      7358      7360
      7357      7355      7358      7361      7358      7361      7364      7365
      7358      7361      7364      7366      7358      7361      7364      7367
      7359      7358      7361      7362      7359      7358      7361      7363
      7359      7358      7361      7364      7360      7358      7361      7362
      7360      7358      7361      7363      7360      7358      7361      7364
      7361      7364      7367      7368      7361      7364      7367      7369
      7361      7364      7367      7370      7362      7361      7364      7365
      7362      7361      7364      7366      7362      7361      7364      7367
      7363      7361      7364      7365      7363      7361      7364      7366
      7363      7361      7364      7367      7364      7367      7370      7371
      7364      7367      7370      7372      7364      7367      7370      7373
      7365      7364      7367      7368      7365      7364      7367      7369
      7365      7364      7367      7370      7366      7364      7367      7368
      7366      7364      7367      7369      7366      7364      7367      7370
      7367      7370      7373      7374      7367      7370      7373      7375
      7367      7370      7373      7376      7368      7367      7370      7371
      7368      7367      7370      7372      7368      7367      7370      7373
      7369      7367      7370      7371      7369      7367      7370      7372
      7369      7367      7370      7373      7370      7373      7376      7377
      7370      7373      7376      7378      7370      7373      7376      7379
      7371      7370      7373      7374      7371      7370      7373      7375
      7371      7370      7373      7376      7372      7370      7373      7374
      7372      7370      7373      7375      7372      7370      7373      7376
      7374      7373      7376      7377      7374      7373      7376      7378
      7374      7373      7376      7379      7375      7373      7376      7377
      7375      7373      7376      7378      7375      7373      7376      7379
      7380      7393      7396      7397      7380      7393      7396      7398
      7380      7393      7396      7403      7381      7380      7385      7386
      7381      7380      7385      7387      7381      7380      7385      7388
      7381      7380      7389      7390      7381      7380      7389      7391
      7381      7380      7389      7392      7381      7380      7393      7394
      7381      7380      7393      7395      7381      7380      7393      7396
      7382      7381      7380      7385      7382      7381      7380      7389
      7382      7381      7380      7393      7383      7381      7380      7385
      7383      7381      7380      7389      7383      7381      7380      7393
      7384      7381      7380      7385      7384      7381      7380      7389
      7384      7381      7380      7393      7385      7380      7389      7390
      7385      7380      7389      7391      7385      7380      7389      7392
      7385      7380      7393      7394      7385      7380      7393      7395
      7385      7380      7393      7396      7386      7385      7380      7389
      7386      7385      7380      7393      7387      7385      7380      7389
      7387      7385      7380      7393      7388      7385      7380      7389
      7388      7385      7380      7393      7389      7380      7393      7394
      7389      7380      7393      7395      7389      7380      7393      7396
      7390      7389      7380      7393      7391      7389      7380      7393
      7392      7389      7380      7393      7393      7396      7403      7399
      7394      7393      7396      7397      7394      7393      7396      7398
      7394      7393      7396      7403      7395      7393      7396      7397
      7395      7393      7396      7398      7395      7393      7396      7403
      7396      7403      7399      7400      7396      7403      7399      7401
      7396      7403      7399      7402      7397      7396      7403      7399
      7398      7396      7403      7399      7399      7402      7404      7405
      7399      7402      7404      7406      7399      7402      7404      7409
      7400      7399      7402      7404      7401      7399      7402      7404
      7402      7404      7409      7407      7402      7404      7409      7410
      7402      7404      7409      7411      7403      7399      7402      7404
      7404      7409      7407      7408      7404      7409      7407      7459
      7404      7409      7411      7412      7404      7409      7411      7413
      7404      7409      7411      7415      7405      7404      7409      7407
      7405      7404      7409      7410      7405      7404      7409      7411
      7406      7404      7409      7407      7406      7404      7409      7410
      7406      7404      7409      7411      7407      7409      7411      7412
      7407      7409      7411      7413      7407      7409      7411      7415
      7407      7459      7461      7462      7407      7459      7461      7463
      7407      7459      7461      7464      7408      7407      7409      7410
      7408      7407      7409      7411      7408      7407      7459      7460
      7408      7407      7459      7461      7409      7407      7459      7460
      7409      7407      7459      7461      7409      7411      7413      7414
      7409      7411      7415      7416      7409      7411      7415      7417
      7410      7409      7407      7459      7410      7409      7411      7412
      7410      7409      7411      7413      7410      7409      7411      7415
      7411      7409      7407      7459      7411      7415      7417      7418
      7411      7415      7417      7419      7412      7411      7413      7414
      7412      7411      7415      7416      7412      7411      7415      7417
      7413      7411      7415      7416      7413      7411      7415      7417
      7414      7413      7411      7415      7415      7417      7419      7420
      7415      7417      7419      7421      7415      7417      7419      7422
      7416      7415      7417      7418      7416      7415      7417      7419
      7417      7419      7422      7423      7417      7419      7422      7424
      7417      7419      7422      7425      7418      7417      7419      7420
      7418      7417      7419      7421      7418      7417      7419      7422
      7419      7422      7425      7426      7419      7422      7425      7427
      7419      7422      7425      7428      7420      7419      7422      7423
      7420      7419      7422      7424      7420      7419      7422      7425
      7421      7419      7422      7423      7421      7419      7422      7424
      7421      7419      7422      7425      7422      7425      7428      7429
      7422      7425      7428      7430      7422      7425      7428      7431
      7423      7422      7425      7426      7423      7422      7425      7427
      7423      7422      7425      7428      7424      7422      7425      7426
      7424      7422      7425      7427      7424      7422      7425      7428
      7425      7428      7431      7432      7425      7428      7431      7433
      7425      7428      7431      7434      7426      7425      7428      7429
      7426      7425      7428      7430      7426      7425      7428      7431
      7427      7425      7428      7429      7427      7425      7428      7430
      7427      7425      7428      7431      7428      7431      7434      7435
      7428      7431      7434      7436      7428      7431      7434      7437
      7429      7428      7431      7432      7429      7428      7431      7433
      7429      7428      7431      7434      7430      7428      7431      7432
      7430      7428      7431      7433      7430      7428      7431      7434
      7431      7434      7437      7438      7431      7434      7437      7439
      7431      7434      7437      7440      7432      7431      7434      7435
      7432      7431      7434      7436      7432      7431      7434      7437
      7433      7431      7434      7435      7433      7431      7434      7436
      7433      7431      7434      7437      7434      7437      7440      7441
      7434      7437      7440      7442      7434      7437      7440      7443
      7435      7434      7437      7438      7435      7434      7437      7439
      7435      7434      7437      7440      7436      7434      7437      7438
      7436      7434      7437      7439      7436      7434      7437      7440
      7437      7440      7443      7444      7437      7440      7443      7445
      7437      7440      7443      7446      7438      7437      7440      7441
      7438      7437      7440      7442      7438      7437      7440      7443
      7439      7437      7440      7441      7439      7437      7440      7442
      7439      7437      7440      7443      7440      7443      7446      7447
      7440      7443      7446      7448      7440      7443      7446      7449
      7441      7440      7443      7444      7441      7440      7443      7445
      7441      7440      7443      7446      7442      7440      7443      7444
      7442      7440      7443      7445      7442      7440      7443      7446
      7443      7446      7449      7450      7443      7446      7449      7451
      7443      7446      7449      7452      7444      7443      7446      7447
      7444      7443      7446      7448      7444      7443      7446      7449
      7445      7443      7446      7447      7445      7443      7446      7448
      7445      7443      7446      7449      7446      7449      7452      7453
      7446      7449      7452      7454      7446      7449      7452      7455
      7447      7446      7449      7450      7447      7446      7449      7451
      7447      7446      7449      7452      7448      7446      7449      7450
      7448      7446      7449      7451      7448      7446      7449      7452
      7449      7452      7455      7456      7449      7452      7455      7457
      7449      7452      7455      7458      7450      7449      7452      7453
      7450      7449      7452      7454      7450      7449      7452      7455
      7451      7449      7452      7453      7451      7449      7452      7454
      7451      7449      7452      7455      7453      7452      7455      7456
      7453      7452      7455      7457      7453      7452      7455      7458
      7454      7452      7455      7456      7454      7452      7455      7457
      7454      7452      7455      7458      7459      7461      7464      7465
      7459      7461      7464      7466      7459      7461      7464      7467
      7460      7459      7461      7462      7460      7459      7461      7463
      7460      7459      7461      7464      7461      7464      7467      7468
      7461      7464      7467      7469      7461      7464      7467      7470
      7462      7461      7464      7465      7462      7461      7464      7466
      7462      7461      7464      7467      7463      7461      7464      7465
      7463      7461      7464      7466      7463      7461      7464      7467
      7464      7467      7470      7471      7464      7467      7470      7472
      7464      7467      7470      7473      7465      7464      7467      7468
      7465      7464      7467      7469      7465      7464      7467      7470
      7466      7464      7467      7468      7466      7464      7467      7469
      7466      7464      7467      7470      7467      7470      7473      7474
      7467      7470      7473      7475      7467      7470      7473      7476
      7468      7467      7470      7471      7468      7467      7470      7472
      7468      7467      7470      7473      7469      7467      7470      7471
      7469      7467      7470      7472      7469      7467      7470      7473
      7470      7473      7476      7477      7470      7473      7476      7478
      7470      7473      7476      7479      7471      7470      7473      7474
      7471      7470      7473      7475      7471      7470      7473      7476
      7472      7470      7473      7474      7472      7470      7473      7475
      7472      7470      7473      7476      7473      7476      7479      7480
      7473      7476      7479      7481      7473      7476      7479      7482
      7474      7473      7476      7477      7474      7473      7476      7478
      7474      7473      7476      7479      7475      7473      7476      7477
      7475      7473      7476      7478      7475      7473      7476      7479
      7476      7479      7482      7483      7476      7479      7482      7484
      7476      7479      7482      7485      7477      7476      7479      7480
      7477      7476      7479      7481      7477      7476      7479      7482
      7478      7476      7479      7480      7478      7476      7479      7481
      7478      7476      7479      7482      7479      7482      7485      7486
      7479      7482      7485      7487      7479      7482      7485      7488
      7480      7479      7482      7483      7480      7479      7482      7484
      7480      7479      7482      7485      7481      7479      7482      7483
      7481      7479      7482      7484      7481      7479      7482      7485
      7482      7485      7488      7489      7482      7485      7488      7490
      7482      7485      7488      7491      7483      7482      7485      7486
      7483      7482      7485      7487      7483      7482      7485      7488
      7484      7482      7485      7486      7484      7482      7485      7487
      7484      7482      7485      7488      7485      7488      7491      7492
      7485      7488      7491      7493      7485      7488      7491      7494
      7486      7485      7488      7489      7486      7485      7488      7490
      7486      7485      7488      7491      7487      7485      7488      7489
      7487      7485      7488      7490      7487      7485      7488      7491
      7488      7491      7494      7495      7488      7491      7494      7496
      7488      7491      7494      7497      7489      7488      7491      7492
      7489      7488      7491      7493      7489      7488      7491      7494
      7490      7488      7491      7492      7490      7488      7491      7493
      7490      7488      7491      7494      7491      7494      7497      7498
      7491      7494      7497      7499      7491      7494      7497      7500
      7492      7491      7494      7495      7492      7491      7494      7496
      7492      7491      7494      7497      7493      7491      7494      7495
      7493      7491      7494      7496      7493      7491      7494      7497
      7494      7497      7500      7501      7494      7497      7500      7502
      7494      7497      7500      7503      7495      7494      7497      7498
      7495      7494      7497      7499      7495      7494      7497      7500
      7496      7494      7497      7498      7496      7494      7497      7499
      7496      7494      7497      7500      7497      7500      7503      7504
      7497      7500      7503      7505      7497      7500      7503      7506
      7498      7497      7500      7501      7498      7497      7500      7502
      7498      7497      7500      7503      7499      7497      7500      7501
      7499      7497      7500      7502      7499      7497      7500      7503
      7500      7503      7506      7507      7500      7503      7506      7508
      7500      7503      7506      7509      7501      7500      7503      7504
      7501      7500      7503      7505      7501      7500      7503      7506
      7502      7500      7503      7504      7502      7500      7503      7505
      7502      7500      7503      7506      7503      7506      7509      7510
      7503      7506      7509      7511      7503      7506      7509      7512
      7504      7503      7506      7507      7504      7503      7506      7508
      7504      7503      7506      7509      7505      7503      7506      7507
      7505      7503      7506      7508      7505      7503      7506      7509
      7506      7509      7512      7513      7506      7509      7512      7514
      7506      7509      7512      7515      7507      7506      7509      7510
      7507      7506      7509      7511      7507      7506      7509      7512
      7508      7506      7509      7510      7508      7506      7509      7511
      7508      7506      7509      7512      7509      7512      7515      7516
      7509      7512      7515      7517      7509      7512      7515      7518
      7510      7509      7512      7513      7510      7509      7512      7514
      7510      7509      7512      7515      7511      7509      7512      7513
      7511      7509      7512      7514      7511      7509      7512      7515
      7512      7515      7518      7519      7512      7515      7518      7520
      7512      7515      7518      7521      7513      7512      7515      7516
      7513      7512      7515      7517      7513      7512      7515      7518
      7514      7512      7515      7516      7514      7512      7515      7517
      7514      7512      7515      7518      7515      7518      7521      7522
      7515      7518      7521      7523      7515      7518      7521      7524
      7516      7515      7518      7519      7516      7515      7518      7520
      7516      7515      7518      7521      7517      7515      7518      7519
      7517      7515      7518      7520      7517      7515      7518      7521
      7518      7521      7524      7525      7518      7521      7524      7526
      7518      7521      7524      7527      7519      7518      7521      7522
      7519      7518      7521      7523      7519      7518      7521      7524
      7520      7518      7521      7522      7520      7518      7521      7523
      7520      7518      7521      7524      7522      7521      7524      7525
      7522      7521      7524      7526      7522      7521      7524      7527
      7523      7521      7524      7525      7523      7521      7524      7526
      7523      7521      7524      7527      7528      7532      7535      7536
      7528      7532      7535      7537      7528      7532      7535      7542
      7529      7528      7532      7533      7529      7528      7532      7534
      7529      7528      7532      7535      7530      7528      7532      7533
      7530      7528      7532      7534      7530      7528      7532      7535
      7531      7528      7532      7533      7531      7528      7532      7534
      7531      7528      7532      7535      7532      7535      7542      7538
      7533      7532      7535      7536      7533      7532      7535      7537
      7533      7532      7535      7542      7534      7532      7535      7536
      7534      7532      7535      7537      7534      7532      7535      7542
      7535      7542      7538      7539      7535      7542      7538      7540
      7535      7542      7538      7541      7536      7535      7542      7538
      7537      7535      7542      7538      7538      7541      7543      7544
      7538      7541      7543      7545      7538      7541      7543      7546
      7539      7538      7541      7543      7540      7538      7541      7543
      7541      7543      7546      7547      7541      7543      7546      7548
      7541      7543      7546      7554      7542      7538      7541      7543
      7543      7546      7548      7549      7543      7546      7554      7555
      7543      7546      7554      7556      7543      7546      7554      7557
      7544      7543      7546      7547      7544      7543      7546      7548
      7544      7543      7546      7554      7545      7543      7546      7547
      7545      7543      7546      7548      7545      7543      7546      7554
      7546      7548      7549      7550      7546      7548      7549      7551
      7546      7554      7557      7558      7547      7546      7548      7549
      7547      7546      7554      7555      7547      7546      7554      7556
      7547      7546      7554      7557      7548      7546      7554      7555
      7548      7546      7554      7556      7548      7546      7554      7557
      7548      7549      7551      7552      7548      7549      7551      7553
      7548      7549      7551      7563      7549      7548      7546      7554
      7549      7551      7563      7564      7549      7551      7563      7565
      7549      7551      7563      7566      7550      7549      7551      7552
      7550      7549      7551      7553      7550      7549      7551      7563
      7551      7563      7566      7567      7551      7563      7566      7568
      7551      7563      7566      7569      7552      7551      7563      7564
      7552      7551      7563      7565      7552      7551      7563      7566
      7553      7551      7563      7564      7553      7551      7563      7565
      7553      7551      7563      7566      7554      7557      7558      7559
      7554      7557      7558      7560      7555      7554      7557      7558
      7556      7554      7557      7558      7557      7558      7560      7561
      7557      7558      7560      7562      7557      7558      7560      7610
      7558      7560      7610      7611      7558      7560      7610      7612
      7558      7560      7610      7613      7559      7558      7560      7561
      7559      7558      7560      7562      7559      7558      7560      7610
      7560      7610      7613      7614      7560      7610      7613      7615
      7560      7610      7613      7616      7561      7560      7610      7611
      7561      7560      7610      7612      7561      7560      7610      7613
      7562      7560      7610      7611      7562      7560      7610      7612
      7562      7560      7610      7613      7563      7566      7569      7570
      7563      7566      7569      7571      7563      7566      7569      7572
      7564      7563      7566      7567      7564      7563      7566      7568
      7564      7563      7566      7569      7565      7563      7566      7567
      7565      7563      7566      7568      7565      7563      7566      7569
      7566      7569      7572      7573      7566      7569      7572      7574
      7566      7569      7572      7575      7567      7566      7569      7570
      7567      7566      7569      7571      7567      7566      7569      7572
      7568      7566      7569      7570      7568      7566      7569      7571
      7568      7566      7569      7572      7569      7572      7575      7576
      7569      7572      7575      7577      7569      7572      7575      7578
      7570      7569      7572      7573      7570      7569      7572      7574
      7570      7569      7572      7575      7571      7569      7572      7573
      7571      7569      7572      7574      7571      7569      7572      7575
      7572      7575      7578      7579      7572      7575      7578      7580
      7572      7575      7578      7581      7573      7572      7575      7576
      7573      7572      7575      7577      7573      7572      7575      7578
      7574      7572      7575      7576      7574      7572      7575      7577
      7574      7572      7575      7578      7575      7578      7581      7582
      7575      7578      7581      7583      7576      7575      7578      7579
      7576      7575      7578      7580      7576      7575      7578      7581
      7577      7575      7578      7579      7577      7575      7578      7580
      7577      7575      7578      7581      7578      7581      7583      7584
      7578      7581      7583      7585      7579      7578      7581      7582
      7579      7578      7581      7583      7580      7578      7581      7582
      7580      7578      7581      7583      7581      7583      7585      7586
      7581      7583      7585      7587      7581      7583      7585      7588
      7582      7581      7583      7584      7582      7581      7583      7585
      7583      7585      7588      7589      7583      7585      7588      7590
      7583      7585      7588      7591      7584      7583      7585      7586
      7584      7583      7585      7587      7584      7583      7585      7588
      7585      7588      7591      7592      7585      7588      7591      7593
      7585      7588      7591      7594      7586      7585      7588      7589
      7586      7585      7588      7590      7586      7585      7588      7591
      7587      7585      7588      7589      7587      7585      7588      7590
      7587      7585      7588      7591      7588      7591      7594      7595
      7588      7591      7594      7596      7588      7591      7594      7597
      7589      7588      7591      7592      7589      7588      7591      7593
      7589      7588      7591      7594      7590      7588      7591      7592
      7590      7588      7591      7593      7590      7588      7591      7594
      7591      7594      7597      7598      7591      7594      7597      7599
      7591      7594      7597      7600      7592      7591      7594      7595
      7592      7591      7594      7596      7592      7591      7594      7597
      7593      7591      7594      7595      7593      7591      7594      7596
      7593      7591      7594      7597      7594      7597      7600      7601
      7594      7597      7600      7602      7594      7597      7600      7603
      7595      7594      7597      7598      7595      7594      7597      7599
      7595      7594      7597      7600      7596      7594      7597      7598
      7596      7594      7597      7599      7596      7594      7597      7600
      7597      7600      7603      7604      7597      7600      7603      7605
      7597      7600      7603      7606      7598      7597      7600      7601
      7598      7597      7600      7602      7598      7597      7600      7603
      7599      7597      7600      7601      7599      7597      7600      7602
      7599      7597      7600      7603      7600      7603      7606      7607
      7600      7603      7606      7608      7600      7603      7606      7609
      7601      7600      7603      7604      7601      7600      7603      7605
      7601      7600      7603      7606      7602      7600      7603      7604
      7602      7600      7603      7605      7602      7600      7603      7606
      7604      7603      7606      7607      7604      7603      7606      7608
      7604      7603      7606      7609      7605      7603      7606      7607
      7605      7603      7606      7608      7605      7603      7606      7609
      7610      7613      7616      7617      7610      7613      7616      7618
      7610      7613      7616      7619      7611      7610      7613      7614
      7611      7610      7613      7615      7611      7610      7613      7616
      7612      7610      7613      7614      7612      7610      7613      7615
      7612      7610      7613      7616      7613      7616      7619      7620
      7613      7616      7619      7621      7613      7616      7619      7622
      7614      7613      7616      7617      7614      7613      7616      7618
      7614      7613      7616      7619      7615      7613      7616      7617
      7615      7613      7616      7618      7615      7613      7616      7619
      7616      7619      7622      7623      7616      7619      7622      7624
      7616      7619      7622      7625      7617      7616      7619      7620
      7617      7616      7619      7621      7617      7616      7619      7622
      7618      7616      7619      7620      7618      7616      7619      7621
      7618      7616      7619      7622      7619      7622      7625      7626
      7619      7622      7625      7627      7619      7622      7625      7628
      7620      7619      7622      7623      7620      7619      7622      7624
      7620      7619      7622      7625      7621      7619      7622      7623
      7621      7619      7622      7624      7621      7619      7622      7625
      7622      7625      7628      7629      7622      7625      7628      7630
      7623      7622      7625      7626      7623      7622      7625      7627
      7623      7622      7625      7628      7624      7622      7625      7626
      7624      7622      7625      7627      7624      7622      7625      7628
      7625      7628      7630      7631      7625      7628      7630      7632
      7626      7625      7628      7629      7626      7625      7628      7630
      7627      7625      7628      7629      7627      7625      7628      7630
      7628      7630      7632      7633      7628      7630      7632      7634
      7628      7630      7632      7635      7629      7628      7630      7631
      7629      7628      7630      7632      7630      7632      7635      7636
      7630      7632      7635      7637      7630      7632      7635      7638
      7631      7630      7632      7633      7631      7630      7632      7634
      7631      7630      7632      7635      7632      7635      7638      7639
      7632      7635      7638      7640      7632      7635      7638      7641
      7633      7632      7635      7636      7633      7632      7635      7637
      7633      7632      7635      7638      7634      7632      7635      7636
      7634      7632      7635      7637      7634      7632      7635      7638
      7635      7638      7641      7642      7635      7638      7641      7643
      7635      7638      7641      7644      7636      7635      7638      7639
      7636      7635      7638      7640      7636      7635      7638      7641
      7637      7635      7638      7639      7637      7635      7638      7640
      7637      7635      7638      7641      7638      7641      7644      7645
      7638      7641      7644      7646      7638      7641      7644      7647
      7639      7638      7641      7642      7639      7638      7641      7643
      7639      7638      7641      7644      7640      7638      7641      7642
      7640      7638      7641      7643      7640      7638      7641      7644
      7641      7644      7647      7648      7641      7644      7647      7649
      7641      7644      7647      7650      7642      7641      7644      7645
      7642      7641      7644      7646      7642      7641      7644      7647
      7643      7641      7644      7645      7643      7641      7644      7646
      7643      7641      7644      7647      7644      7647      7650      7651
      7644      7647      7650      7652      7644      7647      7650      7653
      7645      7644      7647      7648      7645      7644      7647      7649
      7645      7644      7647      7650      7646      7644      7647      7648
      7646      7644      7647      7649      7646      7644      7647      7650
      7647      7650      7653      7654      7647      7650      7653      7655
      7647      7650      7653      7656      7648      7647      7650      7651
      7648      7647      7650      7652      7648      7647      7650      7653
      7649      7647      7650      7651      7649      7647      7650      7652
      7649      7647      7650      7653      7651      7650      7653      7654
      7651      7650      7653      7655      7651      7650      7653      7656
      7652      7650      7653      7654      7652      7650      7653      7655
      7652      7650      7653      7656      7657      7658      7673      7674
      7657      7658      7673      7675      7657      7658      7673      7679
      7658      7657      7661      7662      7658      7657      7661      7663
      7658      7657      7661      7664      7658      7657      7665      7666
      7658      7657      7665      7667      7658      7657      7665      7668
      7658      7657      7669      7670      7658      7657      7669      7671
      7658      7657      7669      7672      7658      7673      7679      7676
      7659      7658      7657      7661      7659      7658      7657      7665
      7659      7658      7657      7669      7659      7658      7673      7674
      7659      7658      7673      7675      7659      7658      7673      7679
      7660      7658      7657      7661      7660      7658      7657      7665
      7660      7658      7657      7669      7660      7658      7673      7674
      7660      7658      7673      7675      7660      7658      7673      7679
      7661      7657      7658      7673      7661      7657      7665      7666
      7661      7657      7665      7667      7661      7657      7665      7668
      7661      7657      7669      7670      7661      7657      7669      7671
      7661      7657      7669      7672      7662      7661      7657      7665
      7662      7661      7657      7669      7663      7661      7657      7665
      7663      7661      7657      7669      7664      7661      7657      7665
      7664      7661      7657      7669      7665      7657      7658      7673
      7665      7657      7669      7670      7665      7657      7669      7671
      7665      7657      7669      7672      7666      7665      7657      7669
      7667      7665      7657      7669      7668      7665      7657      7669
      7669      7657      7658      7673      7673      7679      7676      7677
      7673      7679      7676      7678      7673      7679      7676      7680
      7674      7673      7679      7676      7675      7673      7679      7676
      7676      7680      7681      7682      7676      7680      7681      7683
      7676      7680      7681      7684      7677      7676      7680      7681
      7678      7676      7680      7681      7679      7676      7680      7681
      7680      7681      7684      7685      7680      7681      7684      7686
      7680      7681      7684      7692      7681      7684      7686      7687
      7681      7684      7692      7693      7681      7684      7692      7694
      7681      7684      7692      7695      7682      7681      7684      7685
      7682      7681      7684      7686      7682      7681      7684      7692
      7683      7681      7684      7685      7683      7681      7684      7686
      7683      7681      7684      7692      7684      7686      7687      7688
      7684      7686      7687      7689      7684      7692      7695      7696
      7685      7684      7686      7687      7685      7684      7692      7693
      7685      7684      7692      7694      7685      7684      7692      7695
      7686      7684      7692      7693      7686      7684      7692      7694
      7686      7684      7692      7695      7686      7687      7689      7690
      7686      7687      7689      7691      7686      7687      7689      7701
      7687      7686      7684      7692      7687      7689      7701      7702
      7687      7689      7701      7703      7687      7689      7701      7704
      7688      7687      7689      7690      7688      7687      7689      7691
      7688      7687      7689      7701      7689      7701      7704      7705
      7689      7701      7704      7706      7689      7701      7704      7707
      7690      7689      7701      7702      7690      7689      7701      7703
      7690      7689      7701      7704      7691      7689      7701      7702
      7691      7689      7701      7703      7691      7689      7701      7704
      7692      7695      7696      7697      7692      7695      7696      7698
      7693      7692      7695      7696      7694      7692      7695      7696
      7695      7696      7698      7699      7695      7696      7698      7700
      7695      7696      7698      7748      7696      7698      7748      7749
      7696      7698      7748      7750      7696      7698      7748      7751
      7697      7696      7698      7699      7697      7696      7698      7700
      7697      7696      7698      7748      7698      7748      7751      7752
      7698      7748      7751      7753      7698      7748      7751      7754
      7699      7698      7748      7749      7699      7698      7748      7750
      7699      7698      7748      7751      7700      7698      7748      7749
      7700      7698      7748      7750      7700      7698      7748      7751
      7701      7704      7707      7708      7701      7704      7707      7709
      7701      7704      7707      7710      7702      7701      7704      7705
      7702      7701      7704      7706      7702      7701      7704      7707
      7703      7701      7704      7705      7703      7701      7704      7706
      7703      7701      7704      7707      7704      7707      7710      7711
      7704      7707      7710      7712      7704      7707      7710      7713
      7705      7704      7707      7708      7705      7704      7707      7709
      7705      7704      7707      7710      7706      7704      7707      7708
      7706      7704      7707      7709      7706      7704      7707      7710
      7707      7710      7713      7714      7707      7710      7713      7715
      7707      7710      7713      7716      7708      7707      7710      7711
      7708      7707      7710      7712      7708      7707      7710      7713
      7709      7707      7710      7711      7709      7707      7710      7712
      7709      7707      7710      7713      7710      7713      7716      7717
      7710      7713      7716      7718      7710      7713      7716      7719
      7711      7710      7713      7714      7711      7710      7713      7715
      7711      7710      7713      7716      7712      7710      7713      7714
      7712      7710      7713      7715      7712      7710      7713      7716
      7713      7716      7719      7720      7713      7716      7719      7721
      7714      7713      7716      7717      7714      7713      7716      7718
      7714      7713      7716      7719      7715      7713      7716      7717
      7715      7713      7716      7718      7715      7713      7716      7719
      7716      7719      7721      7722      7716      7719      7721      7723
      7717      7716      7719      7720      7717      7716      7719      7721
      7718      7716      7719      7720      7718      7716      7719      7721
      7719      7721      7723      7724      7719      7721      7723      7725
      7719      7721      7723      7726      7720      7719      7721      7722
      7720      7719      7721      7723      7721      7723      7726      7727
      7721      7723      7726      7728      7721      7723      7726      7729
      7722      7721      7723      7724      7722      7721      7723      7725
      7722      7721      7723      7726      7723      7726      7729      7730
      7723      7726      7729      7731      7723      7726      7729      7732
      7724      7723      7726      7727      7724      7723      7726      7728
      7724      7723      7726      7729      7725      7723      7726      7727
      7725      7723      7726      7728      7725      7723      7726      7729
      7726      7729      7732      7733      7726      7729      7732      7734
      7726      7729      7732      7735      7727      7726      7729      7730
      7727      7726      7729      7731      7727      7726      7729      7732
      7728      7726      7729      7730      7728      7726      7729      7731
      7728      7726      7729      7732      7729      7732      7735      7736
      7729      7732      7735      7737      7729      7732      7735      7738
      7730      7729      7732      7733      7730      7729      7732      7734
      7730      7729      7732      7735      7731      7729      7732      7733
      7731      7729      7732      7734      7731      7729      7732      7735
      7732      7735      7738      7739      7732      7735      7738      7740
      7732      7735      7738      7741      7733      7732      7735      7736
      7733      7732      7735      7737      7733      7732      7735      7738
      7734      7732      7735      7736      7734      7732      7735      7737
      7734      7732      7735      7738      7735      7738      7741      7742
      7735      7738      7741      7743      7735      7738      7741      7744
      7736      7735      7738      7739      7736      7735      7738      7740
      7736      7735      7738      7741      7737      7735      7738      7739
      7737      7735      7738      7740      7737      7735      7738      7741
      7738      7741      7744      7745      7738      7741      7744      7746
      7738      7741      7744      7747      7739      7738      7741      7742
      7739      7738      7741      7743      7739      7738      7741      7744
      7740      7738      7741      7742      7740      7738      7741      7743
      7740      7738      7741      7744      7742      7741      7744      7745
      7742      7741      7744      7746      7742      7741      7744      7747
      7743      7741      7744      7745      7743      7741      7744      7746
      7743      7741      7744      7747      7748      7751      7754      7755
      7748      7751      7754      7756      7748      7751      7754      7757
      7749      7748      7751      7752      7749      7748      7751      7753
      7749      7748      7751      7754      7750      7748      7751      7752
      7750      7748      7751      7753      7750      7748      7751      7754
      7751      7754      7757      7758      7751      7754      7757      7759
      7751      7754      7757      7760      7752      7751      7754      7755
      7752      7751      7754      7756      7752      7751      7754      7757
      7753      7751      7754      7755      7753      7751      7754      7756
      7753      7751      7754      7757      7754      7757      7760      7761
      7754      7757      7760      7762      7754      7757      7760      7763
      7755      7754      7757      7758      7755      7754      7757      7759
      7755      7754      7757      7760      7756      7754      7757      7758
      7756      7754      7757      7759      7756      7754      7757      7760
      7757      7760      7763      7764      7757      7760      7763      7765
      7757      7760      7763      7766      7758      7757      7760      7761
      7758      7757      7760      7762      7758      7757      7760      7763
      7759      7757      7760      7761      7759      7757      7760      7762
      7759      7757      7760      7763      7760      7763      7766      7767
      7760      7763      7766      7768      7761      7760      7763      7764
      7761      7760      7763      7765      7761      7760      7763      7766
      7762      7760      7763      7764      7762      7760      7763      7765
      7762      7760      7763      7766      7763      7766      7768      7769
      7763      7766      7768      7770      7764      7763      7766      7767
      7764      7763      7766      7768      7765      7763      7766      7767
      7765      7763      7766      7768      7766      7768      7770      7771
      7766      7768      7770      7772      7766      7768      7770      7773
      7767      7766      7768      7769      7767      7766      7768      7770
      7768      7770      7773      7774      7768      7770      7773      7775
      7768      7770      7773      7776      7769      7768      7770      7771
      7769      7768      7770      7772      7769      7768      7770      7773
      7770      7773      7776      7777      7770      7773      7776      7778
      7770      7773      7776      7779      7771      7770      7773      7774
      7771      7770      7773      7775      7771      7770      7773      7776
      7772      7770      7773      7774      7772      7770      7773      7775
      7772      7770      7773      7776      7773      7776      7779      7780
      7773      7776      7779      7781      7773      7776      7779      7782
      7774      7773      7776      7777      7774      7773      7776      7778
      7774      7773      7776      7779      7775      7773      7776      7777
      7775      7773      7776      7778      7775      7773      7776      7779
      7776      7779      7782      7783      7776      7779      7782      7784
      7776      7779      7782      7785      7777      7776      7779      7780
      7777      7776      7779      7781      7777      7776      7779      7782
      7778      7776      7779      7780      7778      7776      7779      7781
      7778      7776      7779      7782      7779      7782      7785      7786
      7779      7782      7785      7787      7779      7782      7785      7788
      7780      7779      7782      7783      7780      7779      7782      7784
      7780      7779      7782      7785      7781      7779      7782      7783
      7781      7779      7782      7784      7781      7779      7782      7785
      7782      7785      7788      7789      7782      7785      7788      7790
      7782      7785      7788      7791      7783      7782      7785      7786
      7783      7782      7785      7787      7783      7782      7785      7788
      7784      7782      7785      7786      7784      7782      7785      7787
      7784      7782      7785      7788      7785      7788      7791      7792
      7785      7788      7791      7793      7785      7788      7791      7794
      7786      7785      7788      7789      7786      7785      7788      7790
      7786      7785      7788      7791      7787      7785      7788      7789
      7787      7785      7788      7790      7787      7785      7788      7791
      7789      7788      7791      7792      7789      7788      7791      7793
      7789      7788      7791      7794      7790      7788      7791      7792
      7790      7788      7791      7793      7790      7788      7791      7794
      7795      7796      7811      7812      7795      7796      7811      7813
      7795      7796      7811      7817      7796      7795      7799      7800
      7796      7795      7799      7801      7796      7795      7799      7802
      7796      7795      7803      7804      7796      7795      7803      7805
      7796      7795      7803      7806      7796      7795      7807      7808
      7796      7795      7807      7809      7796      7795      7807      7810
      7796      7811      7817      7814      7797      7796      7795      7799
      7797      7796      7795      7803      7797      7796      7795      7807
      7797      7796      7811      7812      7797      7796      7811      7813
      7797      7796      7811      7817      7798      7796      7795      7799
      7798      7796      7795      7803      7798      7796      7795      7807
      7798      7796      7811      7812      7798      7796      7811      7813
      7798      7796      7811      7817      7799      7795      7796      7811
      7799      7795      7803      7804      7799      7795      7803      7805
      7799      7795      7803      7806      7799      7795      7807      7808
      7799      7795      7807      7809      7799      7795      7807      7810
      7800      7799      7795      7803      7800      7799      7795      7807
      7801      7799      7795      7803      7801      7799      7795      7807
      7802      7799      7795      7803      7802      7799      7795      7807
      7803      7795      7796      7811      7803      7795      7807      7808
      7803      7795      7807      7809      7803      7795      7807      7810
      7804      7803      7795      7807      7805      7803      7795      7807
      7806      7803      7795      7807      7807      7795      7796      7811
      7811      7817      7814      7815      7811      7817      7814      7816
      7811      7817      7814      7818      7812      7811      7817      7814
      7813      7811      7817      7814      7814      7818      7819      7820
      7814      7818      7819      7821      7814      7818      7819      7822
      7815      7814      7818      7819      7816      7814      7818      7819
      7817      7814      7818      7819      7818      7819      7822      7823
      7818      7819      7822      7824      7818      7819      7822      7830
      7819      7822      7824      7825      7819      7822      7830      7831
      7819      7822      7830      7832      7819      7822      7830      7833
      7820      7819      7822      7823      7820      7819      7822      7824
      7820      7819      7822      7830      7821      7819      7822      7823
      7821      7819      7822      7824      7821      7819      7822      7830
      7822      7824      7825      7826      7822      7824      7825      7827
      7822      7830      7833      7834      7823      7822      7824      7825
      7823      7822      7830      7831      7823      7822      7830      7832
      7823      7822      7830      7833      7824      7822      7830      7831
      7824      7822      7830      7832      7824      7822      7830      7833
      7824      7825      7827      7828      7824      7825      7827      7829
      7824      7825      7827      7839      7825      7824      7822      7830
      7825      7827      7839      7840      7825      7827      7839      7841
      7825      7827      7839      7842      7826      7825      7827      7828
      7826      7825      7827      7829      7826      7825      7827      7839
      7827      7839      7842      7843      7827      7839      7842      7844
      7827      7839      7842      7845      7828      7827      7839      7840
      7828      7827      7839      7841      7828      7827      7839      7842
      7829      7827      7839      7840      7829      7827      7839      7841
      7829      7827      7839      7842      7830      7833      7834      7835
      7830      7833      7834      7836      7831      7830      7833      7834
      7832      7830      7833      7834      7833      7834      7836      7837
      7833      7834      7836      7838      7833      7834      7836      7886
      7834      7836      7886      7887      7834      7836      7886      7888
      7834      7836      7886      7889      7835      7834      7836      7837
      7835      7834      7836      7838      7835      7834      7836      7886
      7836      7886      7889      7890      7836      7886      7889      7891
      7836      7886      7889      7892      7837      7836      7886      7887
      7837      7836      7886      7888      7837      7836      7886      7889
      7838      7836      7886      7887      7838      7836      7886      7888
      7838      7836      7886      7889      7839      7842      7845      7846
      7839      7842      7845      7847      7839      7842      7845      7848
      7840      7839      7842      7843      7840      7839      7842      7844
      7840      7839      7842      7845      7841      7839      7842      7843
      7841      7839      7842      7844      7841      7839      7842      7845
      7842      7845      7848      7849      7842      7845      7848      7850
      7842      7845      7848      7851      7843      7842      7845      7846
      7843      7842      7845      7847      7843      7842      7845      7848
      7844      7842      7845      7846      7844      7842      7845      7847
      7844      7842      7845      7848      7845      7848      7851      7852
      7845      7848      7851      7853      7845      7848      7851      7854
      7846      7845      7848      7849      7846      7845      7848      7850
      7846      7845      7848      7851      7847      7845      7848      7849
      7847      7845      7848      7850      7847      7845      7848      7851
      7848      7851      7854      7855      7848      7851      7854      7856
      7848      7851      7854      7857      7849      7848      7851      7852
      7849      7848      7851      7853      7849      7848      7851      7854
      7850      7848      7851      7852      7850      7848      7851      7853
      7850      7848      7851      7854      7851      7854      7857      7858
      7851      7854      7857      7859      7852      7851      7854      7855
      7852      7851      7854      7856      7852      7851      7854      7857
      7853      7851      7854      7855      7853      7851      7854      7856
      7853      7851      7854      7857      7854      7857      7859      7860
      7854      7857      7859      7861      7855      7854      7857      7858
      7855      7854      7857      7859      7856      7854      7857      7858
      7856      7854      7857      7859      7857      7859      7861      7862
      7857      7859      7861      7863      7857      7859      7861      7864
      7858      7857      7859      7860      7858      7857      7859      7861
      7859      7861      7864      7865      7859      7861      7864      7866
      7859      7861      7864      7867      7860      7859      7861      7862
      7860      7859      7861      7863      7860      7859      7861      7864
      7861      7864      7867      7868      7861      7864      7867      7869
      7861      7864      7867      7870      7862      7861      7864      7865
      7862      7861      7864      7866      7862      7861      7864      7867
      7863      7861      7864      7865      7863      7861      7864      7866
      7863      7861      7864      7867      7864      7867      7870      7871
      7864      7867      7870      7872      7864      7867      7870      7873
      7865      7864      7867      7868      7865      7864      7867      7869
      7865      7864      7867      7870      7866      7864      7867      7868
      7866      7864      7867      7869      7866      7864      7867      7870
      7867      7870      7873      7874      7867      7870      7873      7875
      7867      7870      7873      7876      7868      7867      7870      7871
      7868      7867      7870      7872      7868      7867      7870      7873
      7869      7867      7870      7871      7869      7867      7870      7872
      7869      7867      7870      7873      7870      7873      7876      7877
      7870      7873      7876      7878      7870      7873      7876      7879
      7871      7870      7873      7874      7871      7870      7873      7875
      7871      7870      7873      7876      7872      7870      7873      7874
      7872      7870      7873      7875      7872      7870      7873      7876
      7873      7876      7879      7880      7873      7876      7879      7881
      7873      7876      7879      7882      7874      7873      7876      7877
      7874      7873      7876      7878      7874      7873      7876      7879
      7875      7873      7876      7877      7875      7873      7876      7878
      7875      7873      7876      7879      7876      7879      7882      7883
      7876      7879      7882      7884      7876      7879      7882      7885
      7877      7876      7879      7880      7877      7876      7879      7881
      7877      7876      7879      7882      7878      7876      7879      7880
      7878      7876      7879      7881      7878      7876      7879      7882
      7880      7879      7882      7883      7880      7879      7882      7884
      7880      7879      7882      7885      7881      7879      7882      7883
      7881      7879      7882      7884      7881      7879      7882      7885
      7886      7889      7892      7893      7886      7889      7892      7894
      7886      7889      7892      7895      7887      7886      7889      7890
      7887      7886      7889      7891      7887      7886      7889      7892
      7888      7886      7889      7890      7888      7886      7889      7891
      7888      7886      7889      7892      7889      7892      7895      7896
      7889      7892      7895      7897      7889      7892      7895      7898
      7890      7889      7892      7893      7890      7889      7892      7894
      7890      7889      7892      7895      7891      7889      7892      7893
      7891      7889      7892      7894      7891      7889      7892      7895
      7892      7895      7898      7899      7892      7895      7898      7900
      7892      7895      7898      7901      7893      7892      7895      7896
      7893      7892      7895      7897      7893      7892      7895      7898
      7894      7892      7895      7896      7894      7892      7895      7897
      7894      7892      7895      7898      7895      7898      7901      7902
      7895      7898      7901      7903      7895      7898      7901      7904
      7896      7895      7898      7899      7896      7895      7898      7900
      7896      7895      7898      7901      7897      7895      7898      7899
      7897      7895      7898      7900      7897      7895      7898      7901
      7898      7901      7904      7905      7898      7901      7904      7906
      7899      7898      7901      7902      7899      7898      7901      7903
      7899      7898      7901      7904      7900      7898      7901      7902
      7900      7898      7901      7903      7900      7898      7901      7904
      7901      7904      7906      7907      7901      7904      7906      7908
      7902      7901      7904      7905      7902      7901      7904      7906
      7903      7901      7904      7905      7903      7901      7904      7906
      7904      7906      7908      7909      7904      7906      7908      7910
      7904      7906      7908      7911      7905      7904      7906      7907
      7905      7904      7906      7908      7906      7908      7911      7912
      7906      7908      7911      7913      7906      7908      7911      7914
      7907      7906      7908      7909      7907      7906      7908      7910
      7907      7906      7908      7911      7908      7911      7914      7915
      7908      7911      7914      7916      7908      7911      7914      7917
      7909      7908      7911      7912      7909      7908      7911      7913
      7909      7908      7911      7914      7910      7908      7911      7912
      7910      7908      7911      7913      7910      7908      7911      7914
      7911      7914      7917      7918      7911      7914      7917      7919
      7911      7914      7917      7920      7912      7911      7914      7915
      7912      7911      7914      7916      7912      7911      7914      7917
      7913      7911      7914      7915      7913      7911      7914      7916
      7913      7911      7914      7917      7914      7917      7920      7921
      7914      7917      7920      7922      7914      7917      7920      7923
      7915      7914      7917      7918      7915      7914      7917      7919
      7915      7914      7917      7920      7916      7914      7917      7918
      7916      7914      7917      7919      7916      7914      7917      7920
      7917      7920      7923      7924      7917      7920      7923      7925
      7917      7920      7923      7926      7918      7917      7920      7921
      7918      7917      7920      7922      7918      7917      7920      7923
      7919      7917      7920      7921      7919      7917      7920      7922
      7919      7917      7920      7923      7920      7923      7926      7927
      7920      7923      7926      7928      7920      7923      7926      7929
      7921      7920      7923      7924      7921      7920      7923      7925
      7921      7920      7923      7926      7922      7920      7923      7924
      7922      7920      7923      7925      7922      7920      7923      7926
      7923      7926      7929      7930      7923      7926      7929      7931
      7923      7926      7929      7932      7924      7923      7926      7927
      7924      7923      7926      7928      7924      7923      7926      7929
      7925      7923      7926      7927      7925      7923      7926      7928
      7925      7923      7926      7929      7927      7926      7929      7930
      7927      7926      7929      7931      7927      7926      7929      7932
      7928      7926      7929      7930      7928      7926      7929      7931
      7928      7926      7929      7932      7933      7937      7940      7941
      7933      7937      7940      7971      7933      7979      7976      7971
      7933      7979      7976      7977      7933      7979      7976      7978
      7934      7933      7935      7936      7934      7933      7937      7938
      7934      7933      7937      7939      7934      7933      7937      7940
      7934      7933      7979      7976      7934      7933      7979      7980
      7934      7933      7979      7981      7935      7933      7937      7938
      7935      7933      7937      7939      7935      7933      7937      7940
      7935      7933      7979      7976      7935      7933      7979      7980
      7935      7933      7979      7981      7936      7935      7933      7937
      7936      7935      7933      7979      7937      7933      7979      7976
      7937      7933      7979      7980      7937      7933      7979      7981
      7937      7940      7941      7942      7937      7940      7941      7943
      7937      7940      7971      7969      7937      7940      7971      7972
      7937      7940      7971      7976      7938      7937      7933      7979
      7938      7937      7940      7941      7938      7937      7940      7971
      7939      7937      7933      7979      7939      7937      7940      7941
      7939      7937      7940      7971      7940      7937      7933      7979
      7940      7941      7943      7944      7940      7941      7943      7945
      7940      7941      7943      7946      7940      7971      7969      7946
      7940      7971      7969      7966      7940      7971      7969      7970
      7940      7971      7972      7973      7940      7971      7972      7974
      7940      7971      7972      7975      7940      7971      7976      7977
      7940      7971      7976      7978      7940      7971      7976      7979
      7941      7940      7971      7969      7941      7940      7971      7972
      7941      7940      7971      7976      7941      7943      7946      7947
      7941      7943      7946      7948      7941      7943      7946      7969
      7942      7941      7940      7971      7942      7941      7943      7944
      7942      7941      7943      7945      7942      7941      7943      7946
      7943      7941      7940      7971      7943      7946      7948      7949
      7943      7946      7948      7950      7943      7946      7948      7958
      7943      7946      7969      7966      7943      7946      7969      7970
      7943      7946      7969      7971      7944      7943      7946      7947
      7944      7943      7946      7948      7944      7943      7946      7969
      7945      7943      7946      7947      7945      7943      7946      7948
      7945      7943      7946      7969      7946      7948      7950      7951
      7946      7948      7950      7952      7946      7948      7950      7953
      7946      7948      7958      7956      7946      7948      7958      7959
      7946      7948      7958      7963      7946      7969      7966      7963
      7946      7969      7966      7967      7946      7969      7966      7968
      7946      7969      7971      7972      7946      7969      7971      7976
      7947      7946      7948      7949      7947      7946      7948      7950
      7947      7946      7948      7958      7947      7946      7969      7966
      7947      7946      7969      7970      7947      7946      7969      7971
      7948      7946      7969      7966      7948      7946      7969      7970
      7948      7946      7969      7971      7948      7950      7953      7954
      7948      7950      7953      7955      7948      7950      7953      7956
      7948      7958      7956      7953      7948      7958      7956      7957
      7948      7958      7956      7982      7948      7958      7959      7960
      7948      7958      7959      7961      7948      7958      7959      7962
      7948      7958      7963      7964      7948      7958      7963      7965
      7948      7958      7963      7966      7949      7948      7946      7969
      7949      7948      7950      7951      7949      7948      7950      7952
      7949      7948      7950      7953      7949      7948      7958      7956
      7949      7948      7958      7959      7949      7948      7958      7963
      7950      7948      7946      7969      7950      7948      7958      7956
      7950      7948      7958      7959      7950      7948      7958      7963
      7950      7953      7956      7957      7950      7953      7956      7958
      7950      7953      7956      7982      7951      7950      7948      7958
      7951      7950      7953      7954      7951      7950      7953      7955
      7951      7950      7953      7956      7952      7950      7948      7958
      7952      7950      7953      7954      7952      7950      7953      7955
      7952      7950      7953      7956      7953      7950      7948      7958
      7953      7956      7958      7959      7953      7956      7958      7963
      7953      7956      7982      7983      7953      7956      7982      7984
      7953      7956      7982      7988      7954      7953      7956      7957
      7954      7953      7956      7958      7954      7953      7956      7982
      7955      7953      7956      7957      7955      7953      7956      7958
      7955      7953      7956      7982      7956      7958      7959      7960
      7956      7958      7959      7961      7956      7958      7959      7962
      7956      7958      7963      7964      7956      7958      7963      7965
      7956      7958      7963      7966      7956      7982      7984      7985
      7956      7982      7984      7986      7956      7982      7984      7987
      7956      7982      7988      7989      7956      7982      7988      7990
      7956      7982      7988      7991      7957      7956      7958      7959
      7957      7956      7958      7963      7957      7956      7982      7983
      7957      7956      7982      7984      7957      7956      7982      7988
      7958      7948      7946      7969      7958      7956      7982      7983
      7958      7956      7982      7984      7958      7956      7982      7988
      7958      7963      7966      7967      7958      7963      7966      7968
      7958      7963      7966      7969      7959      7958      7956      7982
      7959      7958      7963      7964      7959      7958      7963      7965
      7959      7958      7963      7966      7960      7959      7958      7963
      7961      7959      7958      7963      7962      7959      7958      7963
      7963      7958      7956      7982      7963      7966      7969      7970
      7963      7966      7969      7971      7964      7963      7966      7967
      7964      7963      7966      7968      7964      7963      7966      7969
      7965      7963      7966      7967      7965      7963      7966      7968
      7965      7963      7966      7969      7966      7969      7971      7972
      7966      7969      7971      7976      7967      7966      7969      7970
      7967      7966      7969      7971      7968      7966      7969      7970
      7968      7966      7969      7971      7969      7971      7972      7973
      7969      7971      7972      7974      7969      7971      7972      7975
      7969      7971      7976      7977      7969      7971      7976      7978
      7969      7971      7976      7979      7970      7969      7971      7972
      7970      7969      7971      7976      7971      7976      7979      7980
      7971      7976      7979      7981      7972      7971      7976      7977
      7972      7971      7976      7978      7972      7971      7976      7979
      7973      7972      7971      7976      7974      7972      7971      7976
      7975      7972      7971      7976      7977      7976      7979      7980
      7977      7976      7979      7981      7978      7976      7979      7980
      7978      7976      7979      7981      7982      7988      7991      7992
      7982      7988      7991      7993      7982      7988      7991      7994
      7983      7982      7984      7985      7983      7982      7984      7986
      7983      7982      7984      7987      7983      7982      7988      7989
      7983      7982      7988      7990      7983      7982      7988      7991
      7984      7982      7988      7989      7984      7982      7988      7990
      7984      7982      7988      7991      7985      7984      7982      7988
      7986      7984      7982      7988      7987      7984      7982      7988
      7988      7991      7994      7995      7988      7991      7994      7996
      7988      7991      7994      7997      7989      7988      7991      7992
      7989      7988      7991      7993      7989      7988      7991      7994
      7990      7988      7991      7992      7990      7988      7991      7993
      7990      7988      7991      7994      7991      7994      7997      7998
      7991      7994      7997      7999      7991      7994      7997      8003
      7992      7991      7994      7995      7992      7991      7994      7996
      7992      7991      7994      7997      7993      7991      7994      7995
      7993      7991      7994      7996      7993      7991      7994      7997
      7994      7997      7999      8000      7994      7997      7999      8001
      7994      7997      7999      8002      7994      7997      8003      8004
      7994      7997      8003      8005      7994      7997      8003      8006
      7995      7994      7997      7998      7995      7994      7997      7999
      7995      7994      7997      8003      7996      7994      7997      7998
      7996      7994      7997      7999      7996      7994      7997      8003
      7998      7997      7999      8000      7998      7997      7999      8001
      7998      7997      7999      8002      7998      7997      8003      8004
      7998      7997      8003      8005      7998      7997      8003      8006
      7999      7997      8003      8004      7999      7997      8003      8005
      7999      7997      8003      8006      8000      7999      7997      8003
      8001      7999      7997      8003      8002      7999      7997      8003
      8007      8011      8014      8015      8007      8011      8014      8016
      8007      8011      8014      8021      8008      8007      8011      8012
      8008      8007      8011      8013      8008      8007      8011      8014
      8009      8007      8011      8012      8009      8007      8011      8013
      8009      8007      8011      8014      8010      8007      8011      8012
      8010      8007      8011      8013      8010      8007      8011      8014
      8011      8014      8021      8017      8012      8011      8014      8015
      8012      8011      8014      8016      8012      8011      8014      8021
      8013      8011      8014      8015      8013      8011      8014      8016
      8013      8011      8014      8021      8014      8021      8017      8018
      8014      8021      8017      8019      8014      8021      8017      8020
      8015      8014      8021      8017      8016      8014      8021      8017
      8017      8020      8022      8023      8017      8020      8022      8024
      8017      8020      8022      8025      8018      8017      8020      8022
      8019      8017      8020      8022      8020      8022      8025      8026
      8020      8022      8025      8027      8020      8022      8025      8033
      8021      8017      8020      8022      8022      8025      8027      8028
      8022      8025      8033      8034      8022      8025      8033      8035
      8022      8025      8033      8036      8023      8022      8025      8026
      8023      8022      8025      8027      8023      8022      8025      8033
      8024      8022      8025      8026      8024      8022      8025      8027
      8024      8022      8025      8033      8025      8027      8028      8029
      8025      8027      8028      8030      8025      8033      8036      8037
      8026      8025      8027      8028      8026      8025      8033      8034
      8026      8025      8033      8035      8026      8025      8033      8036
      8027      8025      8033      8034      8027      8025      8033      8035
      8027      8025      8033      8036      8027      8028      8030      8031
      8027      8028      8030      8032      8027      8028      8030      8042
      8028      8027      8025      8033      8028      8030      8042      8043
      8028      8030      8042      8044      8028      8030      8042      8045
      8029      8028      8030      8031      8029      8028      8030      8032
      8029      8028      8030      8042      8030      8042      8045      8046
      8030      8042      8045      8047      8030      8042      8045      8048
      8031      8030      8042      8043      8031      8030      8042      8044
      8031      8030      8042      8045      8032      8030      8042      8043
      8032      8030      8042      8044      8032      8030      8042      8045
      8033      8036      8037      8038      8033      8036      8037      8039
      8034      8033      8036      8037      8035      8033      8036      8037
      8036      8037      8039      8040      8036      8037      8039      8041
      8036      8037      8039      8089      8037      8039      8089      8090
      8037      8039      8089      8091      8037      8039      8089      8092
      8038      8037      8039      8040      8038      8037      8039      8041
      8038      8037      8039      8089      8039      8089      8092      8093
      8039      8089      8092      8094      8039      8089      8092      8095
      8040      8039      8089      8090      8040      8039      8089      8091
      8040      8039      8089      8092      8041      8039      8089      8090
      8041      8039      8089      8091      8041      8039      8089      8092
      8042      8045      8048      8049      8042      8045      8048      8050
      8042      8045      8048      8051      8043      8042      8045      8046
      8043      8042      8045      8047      8043      8042      8045      8048
      8044      8042      8045      8046      8044      8042      8045      8047
      8044      8042      8045      8048      8045      8048      8051      8052
      8045      8048      8051      8053      8045      8048      8051      8054
      8046      8045      8048      8049      8046      8045      8048      8050
      8046      8045      8048      8051      8047      8045      8048      8049
      8047      8045      8048      8050      8047      8045      8048      8051
      8048      8051      8054      8055      8048      8051      8054      8056
      8048      8051      8054      8057      8049      8048      8051      8052
      8049      8048      8051      8053      8049      8048      8051      8054
      8050      8048      8051      8052      8050      8048      8051      8053
      8050      8048      8051      8054      8051      8054      8057      8058
      8051      8054      8057      8059      8051      8054      8057      8060
      8052      8051      8054      8055      8052      8051      8054      8056
      8052      8051      8054      8057      8053      8051      8054      8055
      8053      8051      8054      8056      8053      8051      8054      8057
      8054      8057      8060      8061      8054      8057      8060      8062
      8055      8054      8057      8058      8055      8054      8057      8059
      8055      8054      8057      8060      8056      8054      8057      8058
      8056      8054      8057      8059      8056      8054      8057      8060
      8057      8060      8062      8063      8057      8060      8062      8064
      8058      8057      8060      8061      8058      8057      8060      8062
      8059      8057      8060      8061      8059      8057      8060      8062
      8060      8062      8064      8065      8060      8062      8064      8066
      8060      8062      8064      8067      8061      8060      8062      8063
      8061      8060      8062      8064      8062      8064      8067      8068
      8062      8064      8067      8069      8062      8064      8067      8070
      8063      8062      8064      8065      8063      8062      8064      8066
      8063      8062      8064      8067      8064      8067      8070      8071
      8064      8067      8070      8072      8064      8067      8070      8073
      8065      8064      8067      8068      8065      8064      8067      8069
      8065      8064      8067      8070      8066      8064      8067      8068
      8066      8064      8067      8069      8066      8064      8067      8070
      8067      8070      8073      8074      8067      8070      8073      8075
      8067      8070      8073      8076      8068      8067      8070      8071
      8068      8067      8070      8072      8068      8067      8070      8073
      8069      8067      8070      8071      8069      8067      8070      8072
      8069      8067      8070      8073      8070      8073      8076      8077
      8070      8073      8076      8078      8070      8073      8076      8079
      8071      8070      8073      8074      8071      8070      8073      8075
      8071      8070      8073      8076      8072      8070      8073      8074
      8072      8070      8073      8075      8072      8070      8073      8076
      8073      8076      8079      8080      8073      8076      8079      8081
      8073      8076      8079      8082      8074      8073      8076      8077
      8074      8073      8076      8078      8074      8073      8076      8079
      8075      8073      8076      8077      8075      8073      8076      8078
      8075      8073      8076      8079      8076      8079      8082      8083
      8076      8079      8082      8084      8076      8079      8082      8085
      8077      8076      8079      8080      8077      8076      8079      8081
      8077      8076      8079      8082      8078      8076      8079      8080
      8078      8076      8079      8081      8078      8076      8079      8082
      8079      8082      8085      8086      8079      8082      8085      8087
      8079      8082      8085      8088      8080      8079      8082      8083
      8080      8079      8082      8084      8080      8079      8082      8085
      8081      8079      8082      8083      8081      8079      8082      8084
      8081      8079      8082      8085      8083      8082      8085      8086
      8083      8082      8085      8087      8083      8082      8085      8088
      8084      8082      8085      8086      8084      8082      8085      8087
      8084      8082      8085      8088      8089      8092      8095      8096
      8089      8092      8095      8097      8089      8092      8095      8098
      8090      8089      8092      8093      8090      8089      8092      8094
      8090      8089      8092      8095      8091      8089      8092      8093
      8091      8089      8092      8094      8091      8089      8092      8095
      8092      8095      8098      8099      8092      8095      8098      8100
      8092      8095      8098      8101      8093      8092      8095      8096
      8093      8092      8095      8097      8093      8092      8095      8098
      8094      8092      8095      8096      8094      8092      8095      8097
      8094      8092      8095      8098      8095      8098      8101      8102
      8095      8098      8101      8103      8095      8098      8101      8104
      8096      8095      8098      8099      8096      8095      8098      8100
      8096      8095      8098      8101      8097      8095      8098      8099
      8097      8095      8098      8100      8097      8095      8098      8101
      8098      8101      8104      8105      8098      8101      8104      8106
      8098      8101      8104      8107      8099      8098      8101      8102
      8099      8098      8101      8103      8099      8098      8101      8104
      8100      8098      8101      8102      8100      8098      8101      8103
      8100      8098      8101      8104      8101      8104      8107      8108
      8101      8104      8107      8109      8102      8101      8104      8105
      8102      8101      8104      8106      8102      8101      8104      8107
      8103      8101      8104      8105      8103      8101      8104      8106
      8103      8101      8104      8107      8104      8107      8109      8110
      8104      8107      8109      8111      8105      8104      8107      8108
      8105      8104      8107      8109      8106      8104      8107      8108
      8106      8104      8107      8109      8107      8109      8111      8112
      8107      8109      8111      8113      8107      8109      8111      8114
      8108      8107      8109      8110      8108      8107      8109      8111
      8109      8111      8114      8115      8109      8111      8114      8116
      8109      8111      8114      8117      8110      8109      8111      8112
      8110      8109      8111      8113      8110      8109      8111      8114
      8111      8114      8117      8118      8111      8114      8117      8119
      8111      8114      8117      8120      8112      8111      8114      8115
      8112      8111      8114      8116      8112      8111      8114      8117
      8113      8111      8114      8115      8113      8111      8114      8116
      8113      8111      8114      8117      8114      8117      8120      8121
      8114      8117      8120      8122      8114      8117      8120      8123
      8115      8114      8117      8118      8115      8114      8117      8119
      8115      8114      8117      8120      8116      8114      8117      8118
      8116      8114      8117      8119      8116      8114      8117      8120
      8117      8120      8123      8124      8117      8120      8123      8125
      8117      8120      8123      8126      8118      8117      8120      8121
      8118      8117      8120      8122      8118      8117      8120      8123
      8119      8117      8120      8121      8119      8117      8120      8122
      8119      8117      8120      8123      8120      8123      8126      8127
      8120      8123      8126      8128      8120      8123      8126      8129
      8121      8120      8123      8124      8121      8120      8123      8125
      8121      8120      8123      8126      8122      8120      8123      8124
      8122      8120      8123      8125      8122      8120      8123      8126
      8123      8126      8129      8130      8123      8126      8129      8131
      8123      8126      8129      8132      8124      8123      8126      8127
      8124      8123      8126      8128      8124      8123      8126      8129
      8125      8123      8126      8127      8125      8123      8126      8128
      8125      8123      8126      8129      8126      8129      8132      8133
      8126      8129      8132      8134      8126      8129      8132      8135
      8127      8126      8129      8130      8127      8126      8129      8131
      8127      8126      8129      8132      8128      8126      8129      8130
      8128      8126      8129      8131      8128      8126      8129      8132
      8130      8129      8132      8133      8130      8129      8132      8134
      8130      8129      8132      8135      8131      8129      8132      8133
      8131      8129      8132      8134      8131      8129      8132      8135
      8136      8137      8152      8153      8136      8137      8152      8154
      8136      8137      8152      8158      8137      8136      8140      8141
      8137      8136      8140      8142      8137      8136      8140      8143
      8137      8136      8144      8145      8137      8136      8144      8146
      8137      8136      8144      8147      8137      8136      8148      8149
      8137      8136      8148      8150      8137      8136      8148      8151
      8137      8152      8158      8155      8138      8137      8136      8140
      8138      8137      8136      8144      8138      8137      8136      8148
      8138      8137      8152      8153      8138      8137      8152      8154
      8138      8137      8152      8158      8139      8137      8136      8140
      8139      8137      8136      8144      8139      8137      8136      8148
      8139      8137      8152      8153      8139      8137      8152      8154
      8139      8137      8152      8158      8140      8136      8137      8152
      8140      8136      8144      8145      8140      8136      8144      8146
      8140      8136      8144      8147      8140      8136      8148      8149
      8140      8136      8148      8150      8140      8136      8148      8151
      8141      8140      8136      8144      8141      8140      8136      8148
      8142      8140      8136      8144      8142      8140      8136      8148
      8143      8140      8136      8144      8143      8140      8136      8148
      8144      8136      8137      8152      8144      8136      8148      8149
      8144      8136      8148      8150      8144      8136      8148      8151
      8145      8144      8136      8148      8146      8144      8136      8148
      8147      8144      8136      8148      8148      8136      8137      8152
      8152      8158      8155      8156      8152      8158      8155      8157
      8152      8158      8155      8159      8153      8152      8158      8155
      8154      8152      8158      8155      8155      8159      8160      8161
      8155      8159      8160      8162      8155      8159      8160      8163
      8156      8155      8159      8160      8157      8155      8159      8160
      8158      8155      8159      8160      8159      8160      8163      8164
      8159      8160      8163      8165      8159      8160      8163      8171
      8160      8163      8165      8166      8160      8163      8171      8172
      8160      8163      8171      8173      8160      8163      8171      8174
      8161      8160      8163      8164      8161      8160      8163      8165
      8161      8160      8163      8171      8162      8160      8163      8164
      8162      8160      8163      8165      8162      8160      8163      8171
      8163      8165      8166      8167      8163      8165      8166      8168
      8163      8171      8174      8175      8164      8163      8165      8166
      8164      8163      8171      8172      8164      8163      8171      8173
      8164      8163      8171      8174      8165      8163      8171      8172
      8165      8163      8171      8173      8165      8163      8171      8174
      8165      8166      8168      8169      8165      8166      8168      8170
      8165      8166      8168      8180      8166      8165      8163      8171
      8166      8168      8180      8181      8166      8168      8180      8182
      8166      8168      8180      8183      8167      8166      8168      8169
      8167      8166      8168      8170      8167      8166      8168      8180
      8168      8180      8183      8184      8168      8180      8183      8185
      8168      8180      8183      8186      8169      8168      8180      8181
      8169      8168      8180      8182      8169      8168      8180      8183
      8170      8168      8180      8181      8170      8168      8180      8182
      8170      8168      8180      8183      8171      8174      8175      8176
      8171      8174      8175      8177      8172      8171      8174      8175
      8173      8171      8174      8175      8174      8175      8177      8178
      8174      8175      8177      8179      8174      8175      8177      8227
      8175      8177      8227      8228      8175      8177      8227      8229
      8175      8177      8227      8230      8176      8175      8177      8178
      8176      8175      8177      8179      8176      8175      8177      8227
      8177      8227      8230      8231      8177      8227      8230      8232
      8177      8227      8230      8233      8178      8177      8227      8228
      8178      8177      8227      8229      8178      8177      8227      8230
      8179      8177      8227      8228      8179      8177      8227      8229
      8179      8177      8227      8230      8180      8183      8186      8187
      8180      8183      8186      8188      8180      8183      8186      8189
      8181      8180      8183      8184      8181      8180      8183      8185
      8181      8180      8183      8186      8182      8180      8183      8184
      8182      8180      8183      8185      8182      8180      8183      8186
      8183      8186      8189      8190      8183      8186      8189      8191
      8183      8186      8189      8192      8184      8183      8186      8187
      8184      8183      8186      8188      8184      8183      8186      8189
      8185      8183      8186      8187      8185      8183      8186      8188
      8185      8183      8186      8189      8186      8189      8192      8193
      8186      8189      8192      8194      8186      8189      8192      8195
      8187      8186      8189      8190      8187      8186      8189      8191
      8187      8186      8189      8192      8188      8186      8189      8190
      8188      8186      8189      8191      8188      8186      8189      8192
      8189      8192      8195      8196      8189      8192      8195      8197
      8189      8192      8195      8198      8190      8189      8192      8193
      8190      8189      8192      8194      8190      8189      8192      8195
      8191      8189      8192      8193      8191      8189      8192      8194
      8191      8189      8192      8195      8192      8195      8198      8199
      8192      8195      8198      8200      8193      8192      8195      8196
      8193      8192      8195      8197      8193      8192      8195      8198
      8194      8192      8195      8196      8194      8192      8195      8197
      8194      8192      8195      8198      8195      8198      8200      8201
      8195      8198      8200      8202      8196      8195      8198      8199
      8196      8195      8198      8200      8197      8195      8198      8199
      8197      8195      8198      8200      8198      8200      8202      8203
      8198      8200      8202      8204      8198      8200      8202      8205
      8199      8198      8200      8201      8199      8198      8200      8202
      8200      8202      8205      8206      8200      8202      8205      8207
      8200      8202      8205      8208      8201      8200      8202      8203
      8201      8200      8202      8204      8201      8200      8202      8205
      8202      8205      8208      8209      8202      8205      8208      8210
      8202      8205      8208      8211      8203      8202      8205      8206
      8203      8202      8205      8207      8203      8202      8205      8208
      8204      8202      8205      8206      8204      8202      8205      8207
      8204      8202      8205      8208      8205      8208      8211      8212
      8205      8208      8211      8213      8205      8208      8211      8214
      8206      8205      8208      8209      8206      8205      8208      8210
      8206      8205      8208      8211      8207      8205      8208      8209
      8207      8205      8208      8210      8207      8205      8208      8211
      8208      8211      8214      8215      8208      8211      8214      8216
      8208      8211      8214      8217      8209      8208      8211      8212
      8209      8208      8211      8213      8209      8208      8211      8214
      8210      8208      8211      8212      8210      8208      8211      8213
      8210      8208      8211      8214      8211      8214      8217      8218
      8211      8214      8217      8219      8211      8214      8217      8220
      8212      8211      8214      8215      8212      8211      8214      8216
      8212      8211      8214      8217      8213      8211      8214      8215
      8213      8211      8214      8216      8213      8211      8214      8217
      8214      8217      8220      8221      8214      8217      8220      8222
      8214      8217      8220      8223      8215      8214      8217      8218
      8215      8214      8217      8219      8215      8214      8217      8220
      8216      8214      8217      8218      8216      8214      8217      8219
      8216      8214      8217      8220      8217      8220      8223      8224
      8217      8220      8223      8225      8217      8220      8223      8226
      8218      8217      8220      8221      8218      8217      8220      8222
      8218      8217      8220      8223      8219      8217      8220      8221
      8219      8217      8220      8222      8219      8217      8220      8223
      8221      8220      8223      8224      8221      8220      8223      8225
      8221      8220      8223      8226      8222      8220      8223      8224
      8222      8220      8223      8225      8222      8220      8223      8226
      8227      8230      8233      8234      8227      8230      8233      8235
      8227      8230      8233      8236      8228      8227      8230      8231
      8228      8227      8230      8232      8228      8227      8230      8233
      8229      8227      8230      8231      8229      8227      8230      8232
      8229      8227      8230      8233      8230      8233      8236      8237
      8230      8233      8236      8238      8230      8233      8236      8239
      8231      8230      8233      8234      8231      8230      8233      8235
      8231      8230      8233      8236      8232      8230      8233      8234
      8232      8230      8233      8235      8232      8230      8233      8236
      8233      8236      8239      8240      8233      8236      8239      8241
      8233      8236      8239      8242      8234      8233      8236      8237
      8234      8233      8236      8238      8234      8233      8236      8239
      8235      8233      8236      8237      8235      8233      8236      8238
      8235      8233      8236      8239      8236      8239      8242      8243
      8236      8239      8242      8244      8236      8239      8242      8245
      8237      8236      8239      8240      8237      8236      8239      8241
      8237      8236      8239      8242      8238      8236      8239      8240
      8238      8236      8239      8241      8238      8236      8239      8242
      8239      8242      8245      8246      8239      8242      8245      8247
      8240      8239      8242      8243      8240      8239      8242      8244
      8240      8239      8242      8245      8241      8239      8242      8243
      8241      8239      8242      8244      8241      8239      8242      8245
      8242      8245      8247      8248      8242      8245      8247      8249
      8243      8242      8245      8246      8243      8242      8245      8247
      8244      8242      8245      8246      8244      8242      8245      8247
      8245      8247      8249      8250      8245      8247      8249      8251
      8245      8247      8249      8252      8246      8245      8247      8248
      8246      8245      8247      8249      8247      8249      8252      8253
      8247      8249      8252      8254      8247      8249      8252      8255
      8248      8247      8249      8250      8248      8247      8249      8251
      8248      8247      8249      8252      8249      8252      8255      8256
      8249      8252      8255      8257      8249      8252      8255      8258
      8250      8249      8252      8253      8250      8249      8252      8254
      8250      8249      8252      8255      8251      8249      8252      8253
      8251      8249      8252      8254      8251      8249      8252      8255
      8252      8255      8258      8259      8252      8255      8258      8260
      8252      8255      8258      8261      8253      8252      8255      8256
      8253      8252      8255      8257      8253      8252      8255      8258
      8254      8252      8255      8256      8254      8252      8255      8257
      8254      8252      8255      8258      8255      8258      8261      8262
      8255      8258      8261      8263      8255      8258      8261      8264
      8256      8255      8258      8259      8256      8255      8258      8260
      8256      8255      8258      8261      8257      8255      8258      8259
      8257      8255      8258      8260      8257      8255      8258      8261
      8258      8261      8264      8265      8258      8261      8264      8266
      8258      8261      8264      8267      8259      8258      8261      8262
      8259      8258      8261      8263      8259      8258      8261      8264
      8260      8258      8261      8262      8260      8258      8261      8263
      8260      8258      8261      8264      8261      8264      8267      8268
      8261      8264      8267      8269      8261      8264      8267      8270
      8262      8261      8264      8265      8262      8261      8264      8266
      8262      8261      8264      8267      8263      8261      8264      8265
      8263      8261      8264      8266      8263      8261      8264      8267
      8264      8267      8270      8271      8264      8267      8270      8272
      8264      8267      8270      8273      8265      8264      8267      8268
      8265      8264      8267      8269      8265      8264      8267      8270
      8266      8264      8267      8268      8266      8264      8267      8269
      8266      8264      8267      8270      8268      8267      8270      8271
      8268      8267      8270      8272      8268      8267      8270      8273
      8269      8267      8270      8271      8269      8267      8270      8272
      8269      8267      8270      8273      8274      8275      8290      8291
      8274      8275      8290      8292      8274      8275      8290      8296
      8275      8274      8278      8279      8275      8274      8278      8280
      8275      8274      8278      8281      8275      8274      8282      8283
      8275      8274      8282      8284      8275      8274      8282      8285
      8275      8274      8286      8287      8275      8274      8286      8288
      8275      8274      8286      8289      8275      8290      8296      8293
      8276      8275      8274      8278      8276      8275      8274      8282
      8276      8275      8274      8286      8276      8275      8290      8291
      8276      8275      8290      8292      8276      8275      8290      8296
      8277      8275      8274      8278      8277      8275      8274      8282
      8277      8275      8274      8286      8277      8275      8290      8291
      8277      8275      8290      8292      8277      8275      8290      8296
      8278      8274      8275      8290      8278      8274      8282      8283
      8278      8274      8282      8284      8278      8274      8282      8285
      8278      8274      8286      8287      8278      8274      8286      8288
      8278      8274      8286      8289      8279      8278      8274      8282
      8279      8278      8274      8286      8280      8278      8274      8282
      8280      8278      8274      8286      8281      8278      8274      8282
      8281      8278      8274      8286      8282      8274      8275      8290
      8282      8274      8286      8287      8282      8274      8286      8288
      8282      8274      8286      8289      8283      8282      8274      8286
      8284      8282      8274      8286      8285      8282      8274      8286
      8286      8274      8275      8290      8290      8296      8293      8294
      8290      8296      8293      8295      8290      8296      8293      8297
      8291      8290      8296      8293      8292      8290      8296      8293
      8293      8297      8298      8299      8293      8297      8298      8300
      8293      8297      8298      8301      8294      8293      8297      8298
      8295      8293      8297      8298      8296      8293      8297      8298
      8297      8298      8301      8302      8297      8298      8301      8303
      8297      8298      8301      8309      8298      8301      8303      8304
      8298      8301      8309      8310      8298      8301      8309      8311
      8298      8301      8309      8312      8299      8298      8301      8302
      8299      8298      8301      8303      8299      8298      8301      8309
      8300      8298      8301      8302      8300      8298      8301      8303
      8300      8298      8301      8309      8301      8303      8304      8305
      8301      8303      8304      8306      8301      8309      8312      8313
      8302      8301      8303      8304      8302      8301      8309      8310
      8302      8301      8309      8311      8302      8301      8309      8312
      8303      8301      8309      8310      8303      8301      8309      8311
      8303      8301      8309      8312      8303      8304      8306      8307
      8303      8304      8306      8308      8303      8304      8306      8318
      8304      8303      8301      8309      8304      8306      8318      8319
      8304      8306      8318      8320      8304      8306      8318      8321
      8305      8304      8306      8307      8305      8304      8306      8308
      8305      8304      8306      8318      8306      8318      8321      8322
      8306      8318      8321      8323      8306      8318      8321      8324
      8307      8306      8318      8319      8307      8306      8318      8320
      8307      8306      8318      8321      8308      8306      8318      8319
      8308      8306      8318      8320      8308      8306      8318      8321
      8309      8312      8313      8314      8309      8312      8313      8315
      8310      8309      8312      8313      8311      8309      8312      8313
      8312      8313      8315      8316      8312      8313      8315      8317
      8312      8313      8315      8365      8313      8315      8365      8366
      8313      8315      8365      8367      8313      8315      8365      8368
      8314      8313      8315      8316      8314      8313      8315      8317
      8314      8313      8315      8365      8315      8365      8368      8369
      8315      8365      8368      8370      8315      8365      8368      8371
      8316      8315      8365      8366      8316      8315      8365      8367
      8316      8315      8365      8368      8317      8315      8365      8366
      8317      8315      8365      8367      8317      8315      8365      8368
      8318      8321      8324      8325      8318      8321      8324      8326
      8318      8321      8324      8327      8319      8318      8321      8322
      8319      8318      8321      8323      8319      8318      8321      8324
      8320      8318      8321      8322      8320      8318      8321      8323
      8320      8318      8321      8324      8321      8324      8327      8328
      8321      8324      8327      8329      8321      8324      8327      8330
      8322      8321      8324      8325      8322      8321      8324      8326
      8322      8321      8324      8327      8323      8321      8324      8325
      8323      8321      8324      8326      8323      8321      8324      8327
      8324      8327      8330      8331      8324      8327      8330      8332
      8324      8327      8330      8333      8325      8324      8327      8328
      8325      8324      8327      8329      8325      8324      8327      8330
      8326      8324      8327      8328      8326      8324      8327      8329
      8326      8324      8327      8330      8327      8330      8333      8334
      8327      8330      8333      8335      8327      8330      8333      8336
      8328      8327      8330      8331      8328      8327      8330      8332
      8328      8327      8330      8333      8329      8327      8330      8331
      8329      8327      8330      8332      8329      8327      8330      8333
      8330      8333      8336      8337      8330      8333      8336      8338
      8331      8330      8333      8334      8331      8330      8333      8335
      8331      8330      8333      8336      8332      8330      8333      8334
      8332      8330      8333      8335      8332      8330      8333      8336
      8333      8336      8338      8339      8333      8336      8338      8340
      8334      8333      8336      8337      8334      8333      8336      8338
      8335      8333      8336      8337      8335      8333      8336      8338
      8336      8338      8340      8341      8336      8338      8340      8342
      8336      8338      8340      8343      8337      8336      8338      8339
      8337      8336      8338      8340      8338      8340      8343      8344
      8338      8340      8343      8345      8338      8340      8343      8346
      8339      8338      8340      8341      8339      8338      8340      8342
      8339      8338      8340      8343      8340      8343      8346      8347
      8340      8343      8346      8348      8340      8343      8346      8349
      8341      8340      8343      8344      8341      8340      8343      8345
      8341      8340      8343      8346      8342      8340      8343      8344
      8342      8340      8343      8345      8342      8340      8343      8346
      8343      8346      8349      8350      8343      8346      8349      8351
      8343      8346      8349      8352      8344      8343      8346      8347
      8344      8343      8346      8348      8344      8343      8346      8349
      8345      8343      8346      8347      8345      8343      8346      8348
      8345      8343      8346      8349      8346      8349      8352      8353
      8346      8349      8352      8354      8346      8349      8352      8355
      8347      8346      8349      8350      8347      8346      8349      8351
      8347      8346      8349      8352      8348      8346      8349      8350
      8348      8346      8349      8351      8348      8346      8349      8352
      8349      8352      8355      8356      8349      8352      8355      8357
      8349      8352      8355      8358      8350      8349      8352      8353
      8350      8349      8352      8354      8350      8349      8352      8355
      8351      8349      8352      8353      8351      8349      8352      8354
      8351      8349      8352      8355      8352      8355      8358      8359
      8352      8355      8358      8360      8352      8355      8358      8361
      8353      8352      8355      8356      8353      8352      8355      8357
      8353      8352      8355      8358      8354      8352      8355      8356
      8354      8352      8355      8357      8354      8352      8355      8358
      8355      8358      8361      8362      8355      8358      8361      8363
      8355      8358      8361      8364      8356      8355      8358      8359
      8356      8355      8358      8360      8356      8355      8358      8361
      8357      8355      8358      8359      8357      8355      8358      8360
      8357      8355      8358      8361      8359      8358      8361      8362
      8359      8358      8361      8363      8359      8358      8361      8364
      8360      8358      8361      8362      8360      8358      8361      8363
      8360      8358      8361      8364      8365      8368      8371      8372
      8365      8368      8371      8373      8365      8368      8371      8374
      8366      8365      8368      8369      8366      8365      8368      8370
      8366      8365      8368      8371      8367      8365      8368      8369
      8367      8365      8368      8370      8367      8365      8368      8371
      8368      8371      8374      8375      8368      8371      8374      8376
      8368      8371      8374      8377      8369      8368      8371      8372
      8369      8368      8371      8373      8369      8368      8371      8374
      8370      8368      8371      8372      8370      8368      8371      8373
      8370      8368      8371      8374      8371      8374      8377      8378
      8371      8374      8377      8379      8371      8374      8377      8380
      8372      8371      8374      8375      8372      8371      8374      8376
      8372      8371      8374      8377      8373      8371      8374      8375
      8373      8371      8374      8376      8373      8371      8374      8377
      8374      8377      8380      8381      8374      8377      8380      8382
      8374      8377      8380      8383      8375      8374      8377      8378
      8375      8374      8377      8379      8375      8374      8377      8380
      8376      8374      8377      8378      8376      8374      8377      8379
      8376      8374      8377      8380      8377      8380      8383      8384
      8377      8380      8383      8385      8378      8377      8380      8381
      8378      8377      8380      8382      8378      8377      8380      8383
      8379      8377      8380      8381      8379      8377      8380      8382
      8379      8377      8380      8383      8380      8383      8385      8386
      8380      8383      8385      8387      8381      8380      8383      8384
      8381      8380      8383      8385      8382      8380      8383      8384
      8382      8380      8383      8385      8383      8385      8387      8388
      8383      8385      8387      8389      8383      8385      8387      8390
      8384      8383      8385      8386      8384      8383      8385      8387
      8385      8387      8390      8391      8385      8387      8390      8392
      8385      8387      8390      8393      8386      8385      8387      8388
      8386      8385      8387      8389      8386      8385      8387      8390
      8387      8390      8393      8394      8387      8390      8393      8395
      8387      8390      8393      8396      8388      8387      8390      8391
      8388      8387      8390      8392      8388      8387      8390      8393
      8389      8387      8390      8391      8389      8387      8390      8392
      8389      8387      8390      8393      8390      8393      8396      8397
      8390      8393      8396      8398      8390      8393      8396      8399
      8391      8390      8393      8394      8391      8390      8393      8395
      8391      8390      8393      8396      8392      8390      8393      8394
      8392      8390      8393      8395      8392      8390      8393      8396
      8393      8396      8399      8400      8393      8396      8399      8401
      8393      8396      8399      8402      8394      8393      8396      8397
      8394      8393      8396      8398      8394      8393      8396      8399
      8395      8393      8396      8397      8395      8393      8396      8398
      8395      8393      8396      8399      8396      8399      8402      8403
      8396      8399      8402      8404      8396      8399      8402      8405
      8397      8396      8399      8400      8397      8396      8399      8401
      8397      8396      8399      8402      8398      8396      8399      8400
      8398      8396      8399      8401      8398      8396      8399      8402
      8399      8402      8405      8406      8399      8402      8405      8407
      8399      8402      8405      8408      8400      8399      8402      8403
      8400      8399      8402      8404      8400      8399      8402      8405
      8401      8399      8402      8403      8401      8399      8402      8404
      8401      8399      8402      8405      8402      8405      8408      8409
      8402      8405      8408      8410      8402      8405      8408      8411
      8403      8402      8405      8406      8403      8402      8405      8407
      8403      8402      8405      8408      8404      8402      8405      8406
      8404      8402      8405      8407      8404      8402      8405      8408
      8406      8405      8408      8409      8406      8405      8408      8410
      8406      8405      8408      8411      8407      8405      8408      8409
      8407      8405      8408      8410      8407      8405      8408      8411
      8412      8413      8428      8429      8412      8413      8428      8430
      8412      8413      8428      8434      8413      8412      8416      8417
      8413      8412      8416      8418      8413      8412      8416      8419
      8413      8412      8420      8421      8413      8412      8420      8422
      8413      8412      8420      8423      8413      8412      8424      8425
      8413      8412      8424      8426      8413      8412      8424      8427
      8413      8428      8434      8431      8414      8413      8412      8416
      8414      8413      8412      8420      8414      8413      8412      8424
      8414      8413      8428      8429      8414      8413      8428      8430
      8414      8413      8428      8434      8415      8413      8412      8416
      8415      8413      8412      8420      8415      8413      8412      8424
      8415      8413      8428      8429      8415      8413      8428      8430
      8415      8413      8428      8434      8416      8412      8413      8428
      8416      8412      8420      8421      8416      8412      8420      8422
      8416      8412      8420      8423      8416      8412      8424      8425
      8416      8412      8424      8426      8416      8412      8424      8427
      8417      8416      8412      8420      8417      8416      8412      8424
      8418      8416      8412      8420      8418      8416      8412      8424
      8419      8416      8412      8420      8419      8416      8412      8424
      8420      8412      8413      8428      8420      8412      8424      8425
      8420      8412      8424      8426      8420      8412      8424      8427
      8421      8420      8412      8424      8422      8420      8412      8424
      8423      8420      8412      8424      8424      8412      8413      8428
      8428      8434      8431      8432      8428      8434      8431      8433
      8428      8434      8431      8435      8429      8428      8434      8431
      8430      8428      8434      8431      8431      8435      8436      8437
      8431      8435      8436      8438      8431      8435      8436      8439
      8432      8431      8435      8436      8433      8431      8435      8436
      8434      8431      8435      8436      8435      8436      8439      8440
      8435      8436      8439      8441      8435      8436      8439      8447
      8436      8439      8441      8442      8436      8439      8447      8448
      8436      8439      8447      8449      8436      8439      8447      8450
      8437      8436      8439      8440      8437      8436      8439      8441
      8437      8436      8439      8447      8438      8436      8439      8440
      8438      8436      8439      8441      8438      8436      8439      8447
      8439      8441      8442      8443      8439      8441      8442      8444
      8439      8447      8450      8451      8440      8439      8441      8442
      8440      8439      8447      8448      8440      8439      8447      8449
      8440      8439      8447      8450      8441      8439      8447      8448
      8441      8439      8447      8449      8441      8439      8447      8450
      8441      8442      8444      8445      8441      8442      8444      8446
      8441      8442      8444      8456      8442      8441      8439      8447
      8442      8444      8456      8457      8442      8444      8456      8458
      8442      8444      8456      8459      8443      8442      8444      8445
      8443      8442      8444      8446      8443      8442      8444      8456
      8444      8456      8459      8460      8444      8456      8459      8461
      8444      8456      8459      8462      8445      8444      8456      8457
      8445      8444      8456      8458      8445      8444      8456      8459
      8446      8444      8456      8457      8446      8444      8456      8458
      8446      8444      8456      8459      8447      8450      8451      8452
      8447      8450      8451      8453      8448      8447      8450      8451
      8449      8447      8450      8451      8450      8451      8453      8454
      8450      8451      8453      8455      8450      8451      8453      8503
      8451      8453      8503      8504      8451      8453      8503      8505
      8451      8453      8503      8506      8452      8451      8453      8454
      8452      8451      8453      8455      8452      8451      8453      8503
      8453      8503      8506      8507      8453      8503      8506      8508
      8453      8503      8506      8509      8454      8453      8503      8504
      8454      8453      8503      8505      8454      8453      8503      8506
      8455      8453      8503      8504      8455      8453      8503      8505
      8455      8453      8503      8506      8456      8459      8462      8463
      8456      8459      8462      8464      8456      8459      8462      8465
      8457      8456      8459      8460      8457      8456      8459      8461
      8457      8456      8459      8462      8458      8456      8459      8460
      8458      8456      8459      8461      8458      8456      8459      8462
      8459      8462      8465      8466      8459      8462      8465      8467
      8459      8462      8465      8468      8460      8459      8462      8463
      8460      8459      8462      8464      8460      8459      8462      8465
      8461      8459      8462      8463      8461      8459      8462      8464
      8461      8459      8462      8465      8462      8465      8468      8469
      8462      8465      8468      8470      8462      8465      8468      8471
      8463      8462      8465      8466      8463      8462      8465      8467
      8463      8462      8465      8468      8464      8462      8465      8466
      8464      8462      8465      8467      8464      8462      8465      8468
      8465      8468      8471      8472      8465      8468      8471      8473
      8465      8468      8471      8474      8466      8465      8468      8469
      8466      8465      8468      8470      8466      8465      8468      8471
      8467      8465      8468      8469      8467      8465      8468      8470
      8467      8465      8468      8471      8468      8471      8474      8475
      8468      8471      8474      8476      8469      8468      8471      8472
      8469      8468      8471      8473      8469      8468      8471      8474
      8470      8468      8471      8472      8470      8468      8471      8473
      8470      8468      8471      8474      8471      8474      8476      8477
      8471      8474      8476      8478      8472      8471      8474      8475
      8472      8471      8474      8476      8473      8471      8474      8475
      8473      8471      8474      8476      8474      8476      8478      8479
      8474      8476      8478      8480      8474      8476      8478      8481
      8475      8474      8476      8477      8475      8474      8476      8478
      8476      8478      8481      8482      8476      8478      8481      8483
      8476      8478      8481      8484      8477      8476      8478      8479
      8477      8476      8478      8480      8477      8476      8478      8481
      8478      8481      8484      8485      8478      8481      8484      8486
      8478      8481      8484      8487      8479      8478      8481      8482
      8479      8478      8481      8483      8479      8478      8481      8484
      8480      8478      8481      8482      8480      8478      8481      8483
      8480      8478      8481      8484      8481      8484      8487      8488
      8481      8484      8487      8489      8481      8484      8487      8490
      8482      8481      8484      8485      8482      8481      8484      8486
      8482      8481      8484      8487      8483      8481      8484      8485
      8483      8481      8484      8486      8483      8481      8484      8487
      8484      8487      8490      8491      8484      8487      8490      8492
      8484      8487      8490      8493      8485      8484      8487      8488
      8485      8484      8487      8489      8485      8484      8487      8490
      8486      8484      8487      8488      8486      8484      8487      8489
      8486      8484      8487      8490      8487      8490      8493      8494
      8487      8490      8493      8495      8487      8490      8493      8496
      8488      8487      8490      8491      8488      8487      8490      8492
      8488      8487      8490      8493      8489      8487      8490      8491
      8489      8487      8490      8492      8489      8487      8490      8493
      8490      8493      8496      8497      8490      8493      8496      8498
      8490      8493      8496      8499      8491      8490      8493      8494
      8491      8490      8493      8495      8491      8490      8493      8496
      8492      8490      8493      8494      8492      8490      8493      8495
      8492      8490      8493      8496      8493      8496      8499      8500
      8493      8496      8499      8501      8493      8496      8499      8502
      8494      8493      8496      8497      8494      8493      8496      8498
      8494      8493      8496      8499      8495      8493      8496      8497
      8495      8493      8496      8498      8495      8493      8496      8499
      8497      8496      8499      8500      8497      8496      8499      8501
      8497      8496      8499      8502      8498      8496      8499      8500
      8498      8496      8499      8501      8498      8496      8499      8502
      8503      8506      8509      8510      8503      8506      8509      8511
      8503      8506      8509      8512      8504      8503      8506      8507
      8504      8503      8506      8508      8504      8503      8506      8509
      8505      8503      8506      8507      8505      8503      8506      8508
      8505      8503      8506      8509      8506      8509      8512      8513
      8506      8509      8512      8514      8506      8509      8512      8515
      8507      8506      8509      8510      8507      8506      8509      8511
      8507      8506      8509      8512      8508      8506      8509      8510
      8508      8506      8509      8511      8508      8506      8509      8512
      8509      8512      8515      8516      8509      8512      8515      8517
      8509      8512      8515      8518      8510      8509      8512      8513
      8510      8509      8512      8514      8510      8509      8512      8515
      8511      8509      8512      8513      8511      8509      8512      8514
      8511      8509      8512      8515      8512      8515      8518      8519
      8512      8515      8518      8520      8512      8515      8518      8521
      8513      8512      8515      8516      8513      8512      8515      8517
      8513      8512      8515      8518      8514      8512      8515      8516
      8514      8512      8515      8517      8514      8512      8515      8518
      8515      8518      8521      8522      8515      8518      8521      8523
      8516      8515      8518      8519      8516      8515      8518      8520
      8516      8515      8518      8521      8517      8515      8518      8519
      8517      8515      8518      8520      8517      8515      8518      8521
      8518      8521      8523      8524      8518      8521      8523      8525
      8519      8518      8521      8522      8519      8518      8521      8523
      8520      8518      8521      8522      8520      8518      8521      8523
      8521      8523      8525      8526      8521      8523      8525      8527
      8521      8523      8525      8528      8522      8521      8523      8524
      8522      8521      8523      8525      8523      8525      8528      8529
      8523      8525      8528      8530      8523      8525      8528      8531
      8524      8523      8525      8526      8524      8523      8525      8527
      8524      8523      8525      8528      8525      8528      8531      8532
      8525      8528      8531      8533      8525      8528      8531      8534
      8526      8525      8528      8529      8526      8525      8528      8530
      8526      8525      8528      8531      8527      8525      8528      8529
      8527      8525      8528      8530      8527      8525      8528      8531
      8528      8531      8534      8535      8528      8531      8534      8536
      8528      8531      8534      8537      8529      8528      8531      8532
      8529      8528      8531      8533      8529      8528      8531      8534
      8530      8528      8531      8532      8530      8528      8531      8533
      8530      8528      8531      8534      8531      8534      8537      8538
      8531      8534      8537      8539      8531      8534      8537      8540
      8532      8531      8534      8535      8532      8531      8534      8536
      8532      8531      8534      8537      8533      8531      8534      8535
      8533      8531      8534      8536      8533      8531      8534      8537
      8534      8537      8540      8541      8534      8537      8540      8542
      8534      8537      8540      8543      8535      8534      8537      8538
      8535      8534      8537      8539      8535      8534      8537      8540
      8536      8534      8537      8538      8536      8534      8537      8539
      8536      8534      8537      8540      8537      8540      8543      8544
      8537      8540      8543      8545      8537      8540      8543      8546
      8538      8537      8540      8541      8538      8537      8540      8542
      8538      8537      8540      8543      8539      8537      8540      8541
      8539      8537      8540      8542      8539      8537      8540      8543
      8540      8543      8546      8547      8540      8543      8546      8548
      8540      8543      8546      8549      8541      8540      8543      8544
      8541      8540      8543      8545      8541      8540      8543      8546
      8542      8540      8543      8544      8542      8540      8543      8545
      8542      8540      8543      8546      8544      8543      8546      8547
      8544      8543      8546      8548      8544      8543      8546      8549
      8545      8543      8546      8547      8545      8543      8546      8548
      8545      8543      8546      8549      8550      8554      8557      8558
      8550      8554      8557      8559      8550      8554      8557      8564
      8551      8550      8554      8555      8551      8550      8554      8556
      8551      8550      8554      8557      8552      8550      8554      8555
      8552      8550      8554      8556      8552      8550      8554      8557
      8553      8550      8554      8555      8553      8550      8554      8556
      8553      8550      8554      8557      8554      8557      8564      8560
      8555      8554      8557      8558      8555      8554      8557      8559
      8555      8554      8557      8564      8556      8554      8557      8558
      8556      8554      8557      8559      8556      8554      8557      8564
      8557      8564      8560      8561      8557      8564      8560      8562
      8557      8564      8560      8563      8558      8557      8564      8560
      8559      8557      8564      8560      8560      8563      8565      8566
      8560      8563      8565      8567      8560      8563      8565      8568
      8561      8560      8563      8565      8562      8560      8563      8565
      8563      8565      8568      8569      8563      8565      8568      8570
      8563      8565      8568      8576      8564      8560      8563      8565
      8565      8568      8570      8571      8565      8568      8576      8577
      8565      8568      8576      8578      8565      8568      8576      8579
      8566      8565      8568      8569      8566      8565      8568      8570
      8566      8565      8568      8576      8567      8565      8568      8569
      8567      8565      8568      8570      8567      8565      8568      8576
      8568      8570      8571      8572      8568      8570      8571      8573
      8568      8576      8579      8580      8569      8568      8570      8571
      8569      8568      8576      8577      8569      8568      8576      8578
      8569      8568      8576      8579      8570      8568      8576      8577
      8570      8568      8576      8578      8570      8568      8576      8579
      8570      8571      8573      8574      8570      8571      8573      8575
      8570      8571      8573      8585      8571      8570      8568      8576
      8571      8573      8585      8586      8571      8573      8585      8587
      8571      8573      8585      8588      8572      8571      8573      8574
      8572      8571      8573      8575      8572      8571      8573      8585
      8573      8585      8588      8589      8573      8585      8588      8590
      8573      8585      8588      8591      8574      8573      8585      8586
      8574      8573      8585      8587      8574      8573      8585      8588
      8575      8573      8585      8586      8575      8573      8585      8587
      8575      8573      8585      8588      8576      8579      8580      8581
      8576      8579      8580      8582      8577      8576      8579      8580
      8578      8576      8579      8580      8579      8580      8582      8583
      8579      8580      8582      8584      8579      8580      8582      8632
      8580      8582      8632      8633      8580      8582      8632      8634
      8580      8582      8632      8635      8581      8580      8582      8583
      8581      8580      8582      8584      8581      8580      8582      8632
      8582      8632      8635      8636      8582      8632      8635      8637
      8582      8632      8635      8638      8583      8582      8632      8633
      8583      8582      8632      8634      8583      8582      8632      8635
      8584      8582      8632      8633      8584      8582      8632      8634
      8584      8582      8632      8635      8585      8588      8591      8592
      8585      8588      8591      8593      8585      8588      8591      8594
      8586      8585      8588      8589      8586      8585      8588      8590
      8586      8585      8588      8591      8587      8585      8588      8589
      8587      8585      8588      8590      8587      8585      8588      8591
      8588      8591      8594      8595      8588      8591      8594      8596
      8588      8591      8594      8597      8589      8588      8591      8592
      8589      8588      8591      8593      8589      8588      8591      8594
      8590      8588      8591      8592      8590      8588      8591      8593
      8590      8588      8591      8594      8591      8594      8597      8598
      8591      8594      8597      8599      8591      8594      8597      8600
      8592      8591      8594      8595      8592      8591      8594      8596
      8592      8591      8594      8597      8593      8591      8594      8595
      8593      8591      8594      8596      8593      8591      8594      8597
      8594      8597      8600      8601      8594      8597      8600      8602
      8594      8597      8600      8603      8595      8594      8597      8598
      8595      8594      8597      8599      8595      8594      8597      8600
      8596      8594      8597      8598      8596      8594      8597      8599
      8596      8594      8597      8600      8597      8600      8603      8604
      8597      8600      8603      8605      8598      8597      8600      8601
      8598      8597      8600      8602      8598      8597      8600      8603
      8599      8597      8600      8601      8599      8597      8600      8602
      8599      8597      8600      8603      8600      8603      8605      8606
      8600      8603      8605      8607      8601      8600      8603      8604
      8601      8600      8603      8605      8602      8600      8603      8604
      8602      8600      8603      8605      8603      8605      8607      8608
      8603      8605      8607      8609      8603      8605      8607      8610
      8604      8603      8605      8606      8604      8603      8605      8607
      8605      8607      8610      8611      8605      8607      8610      8612
      8605      8607      8610      8613      8606      8605      8607      8608
      8606      8605      8607      8609      8606      8605      8607      8610
      8607      8610      8613      8614      8607      8610      8613      8615
      8607      8610      8613      8616      8608      8607      8610      8611
      8608      8607      8610      8612      8608      8607      8610      8613
      8609      8607      8610      8611      8609      8607      8610      8612
      8609      8607      8610      8613      8610      8613      8616      8617
      8610      8613      8616      8618      8610      8613      8616      8619
      8611      8610      8613      8614      8611      8610      8613      8615
      8611      8610      8613      8616      8612      8610      8613      8614
      8612      8610      8613      8615      8612      8610      8613      8616
      8613      8616      8619      8620      8613      8616      8619      8621
      8613      8616      8619      8622      8614      8613      8616      8617
      8614      8613      8616      8618      8614      8613      8616      8619
      8615      8613      8616      8617      8615      8613      8616      8618
      8615      8613      8616      8619      8616      8619      8622      8623
      8616      8619      8622      8624      8616      8619      8622      8625
      8617      8616      8619      8620      8617      8616      8619      8621
      8617      8616      8619      8622      8618      8616      8619      8620
      8618      8616      8619      8621      8618      8616      8619      8622
      8619      8622      8625      8626      8619      8622      8625      8627
      8619      8622      8625      8628      8620      8619      8622      8623
      8620      8619      8622      8624      8620      8619      8622      8625
      8621      8619      8622      8623      8621      8619      8622      8624
      8621      8619      8622      8625      8622      8625      8628      8629
      8622      8625      8628      8630      8622      8625      8628      8631
      8623      8622      8625      8626      8623      8622      8625      8627
      8623      8622      8625      8628      8624      8622      8625      8626
      8624      8622      8625      8627      8624      8622      8625      8628
      8626      8625      8628      8629      8626      8625      8628      8630
      8626      8625      8628      8631      8627      8625      8628      8629
      8627      8625      8628      8630      8627      8625      8628      8631
      8632      8635      8638      8639      8632      8635      8638      8640
      8632      8635      8638      8641      8633      8632      8635      8636
      8633      8632      8635      8637      8633      8632      8635      8638
      8634      8632      8635      8636      8634      8632      8635      8637
      8634      8632      8635      8638      8635      8638      8641      8642
      8635      8638      8641      8643      8635      8638      8641      8644
      8636      8635      8638      8639      8636      8635      8638      8640
      8636      8635      8638      8641      8637      8635      8638      8639
      8637      8635      8638      8640      8637      8635      8638      8641
      8638      8641      8644      8645      8638      8641      8644      8646
      8638      8641      8644      8647      8639      8638      8641      8642
      8639      8638      8641      8643      8639      8638      8641      8644
      8640      8638      8641      8642      8640      8638      8641      8643
      8640      8638      8641      8644      8641      8644      8647      8648
      8641      8644      8647      8649      8641      8644      8647      8650
      8642      8641      8644      8645      8642      8641      8644      8646
      8642      8641      8644      8647      8643      8641      8644      8645
      8643      8641      8644      8646      8643      8641      8644      8647
      8644      8647      8650      8651      8644      8647      8650      8652
      8645      8644      8647      8648      8645      8644      8647      8649
      8645      8644      8647      8650      8646      8644      8647      8648
      8646      8644      8647      8649      8646      8644      8647      8650
      8647      8650      8652      8653      8647      8650      8652      8654
      8648      8647      8650      8651      8648      8647      8650      8652
      8649      8647      8650      8651      8649      8647      8650      8652
      8650      8652      8654      8655      8650      8652      8654      8656
      8650      8652      8654      8657      8651      8650      8652      8653
      8651      8650      8652      8654      8652      8654      8657      8658
      8652      8654      8657      8659      8652      8654      8657      8660
      8653      8652      8654      8655      8653      8652      8654      8656
      8653      8652      8654      8657      8654      8657      8660      8661
      8654      8657      8660      8662      8654      8657      8660      8663
      8655      8654      8657      8658      8655      8654      8657      8659
      8655      8654      8657      8660      8656      8654      8657      8658
      8656      8654      8657      8659      8656      8654      8657      8660
      8657      8660      8663      8664      8657      8660      8663      8665
      8657      8660      8663      8666      8658      8657      8660      8661
      8658      8657      8660      8662      8658      8657      8660      8663
      8659      8657      8660      8661      8659      8657      8660      8662
      8659      8657      8660      8663      8660      8663      8666      8667
      8660      8663      8666      8668      8660      8663      8666      8669
      8661      8660      8663      8664      8661      8660      8663      8665
      8661      8660      8663      8666      8662      8660      8663      8664
      8662      8660      8663      8665      8662      8660      8663      8666
      8663      8666      8669      8670      8663      8666      8669      8671
      8663      8666      8669      8672      8664      8663      8666      8667
      8664      8663      8666      8668      8664      8663      8666      8669
      8665      8663      8666      8667      8665      8663      8666      8668
      8665      8663      8666      8669      8666      8669      8672      8673
      8666      8669      8672      8674      8666      8669      8672      8675
      8667      8666      8669      8670      8667      8666      8669      8671
      8667      8666      8669      8672      8668      8666      8669      8670
      8668      8666      8669      8671      8668      8666      8669      8672
      8669      8672      8675      8676      8669      8672      8675      8677
      8669      8672      8675      8678      8670      8669      8672      8673
      8670      8669      8672      8674      8670      8669      8672      8675
      8671      8669      8672      8673      8671      8669      8672      8674
      8671      8669      8672      8675      8673      8672      8675      8676
      8673      8672      8675      8677      8673      8672      8675      8678
      8674      8672      8675      8676      8674      8672      8675      8677
      8674      8672      8675      8678      8679      8683      8686      8687
      8679      8683      8686      8688      8679      8683      8686      8693
      8680      8679      8683      8684      8680      8679      8683      8685
      8680      8679      8683      8686      8681      8679      8683      8684
      8681      8679      8683      8685      8681      8679      8683      8686
      8682      8679      8683      8684      8682      8679      8683      8685
      8682      8679      8683      8686      8683      8686      8693      8689
      8684      8683      8686      8687      8684      8683      8686      8688
      8684      8683      8686      8693      8685      8683      8686      8687
      8685      8683      8686      8688      8685      8683      8686      8693
      8686      8693      8689      8690      8686      8693      8689      8691
      8686      8693      8689      8692      8687      8686      8693      8689
      8688      8686      8693      8689      8689      8692      8694      8695
      8689      8692      8694      8696      8689      8692      8694      8697
      8690      8689      8692      8694      8691      8689      8692      8694
      8692      8694      8697      8698      8692      8694      8697      8699
      8692      8694      8697      8705      8693      8689      8692      8694
      8694      8697      8699      8700      8694      8697      8705      8706
      8694      8697      8705      8707      8694      8697      8705      8708
      8695      8694      8697      8698      8695      8694      8697      8699
      8695      8694      8697      8705      8696      8694      8697      8698
      8696      8694      8697      8699      8696      8694      8697      8705
      8697      8699      8700      8701      8697      8699      8700      8702
      8697      8705      8708      8709      8698      8697      8699      8700
      8698      8697      8705      8706      8698      8697      8705      8707
      8698      8697      8705      8708      8699      8697      8705      8706
      8699      8697      8705      8707      8699      8697      8705      8708
      8699      8700      8702      8703      8699      8700      8702      8704
      8699      8700      8702      8714      8700      8699      8697      8705
      8700      8702      8714      8715      8700      8702      8714      8716
      8700      8702      8714      8717      8701      8700      8702      8703
      8701      8700      8702      8704      8701      8700      8702      8714
      8702      8714      8717      8718      8702      8714      8717      8719
      8702      8714      8717      8720      8703      8702      8714      8715
      8703      8702      8714      8716      8703      8702      8714      8717
      8704      8702      8714      8715      8704      8702      8714      8716
      8704      8702      8714      8717      8705      8708      8709      8710
      8705      8708      8709      8711      8706      8705      8708      8709
      8707      8705      8708      8709      8708      8709      8711      8712
      8708      8709      8711      8713      8708      8709      8711      8761
      8709      8711      8761      8762      8709      8711      8761      8763
      8709      8711      8761      8764      8710      8709      8711      8712
      8710      8709      8711      8713      8710      8709      8711      8761
      8711      8761      8764      8765      8711      8761      8764      8766
      8711      8761      8764      8767      8712      8711      8761      8762
      8712      8711      8761      8763      8712      8711      8761      8764
      8713      8711      8761      8762      8713      8711      8761      8763
      8713      8711      8761      8764      8714      8717      8720      8721
      8714      8717      8720      8722      8714      8717      8720      8723
      8715      8714      8717      8718      8715      8714      8717      8719
      8715      8714      8717      8720      8716      8714      8717      8718
      8716      8714      8717      8719      8716      8714      8717      8720
      8717      8720      8723      8724      8717      8720      8723      8725
      8717      8720      8723      8726      8718      8717      8720      8721
      8718      8717      8720      8722      8718      8717      8720      8723
      8719      8717      8720      8721      8719      8717      8720      8722
      8719      8717      8720      8723      8720      8723      8726      8727
      8720      8723      8726      8728      8720      8723      8726      8729
      8721      8720      8723      8724      8721      8720      8723      8725
      8721      8720      8723      8726      8722      8720      8723      8724
      8722      8720      8723      8725      8722      8720      8723      8726
      8723      8726      8729      8730      8723      8726      8729      8731
      8723      8726      8729      8732      8724      8723      8726      8727
      8724      8723      8726      8728      8724      8723      8726      8729
      8725      8723      8726      8727      8725      8723      8726      8728
      8725      8723      8726      8729      8726      8729      8732      8733
      8726      8729      8732      8734      8727      8726      8729      8730
      8727      8726      8729      8731      8727      8726      8729      8732
      8728      8726      8729      8730      8728      8726      8729      8731
      8728      8726      8729      8732      8729      8732      8734      8735
      8729      8732      8734      8736      8730      8729      8732      8733
      8730      8729      8732      8734      8731      8729      8732      8733
      8731      8729      8732      8734      8732      8734      8736      8737
      8732      8734      8736      8738      8732      8734      8736      8739
      8733      8732      8734      8735      8733      8732      8734      8736
      8734      8736      8739      8740      8734      8736      8739      8741
      8734      8736      8739      8742      8735      8734      8736      8737
      8735      8734      8736      8738      8735      8734      8736      8739
      8736      8739      8742      8743      8736      8739      8742      8744
      8736      8739      8742      8745      8737      8736      8739      8740
      8737      8736      8739      8741      8737      8736      8739      8742
      8738      8736      8739      8740      8738      8736      8739      8741
      8738      8736      8739      8742      8739      8742      8745      8746
      8739      8742      8745      8747      8739      8742      8745      8748
      8740      8739      8742      8743      8740      8739      8742      8744
      8740      8739      8742      8745      8741      8739      8742      8743
      8741      8739      8742      8744      8741      8739      8742      8745
      8742      8745      8748      8749      8742      8745      8748      8750
      8742      8745      8748      8751      8743      8742      8745      8746
      8743      8742      8745      8747      8743      8742      8745      8748
      8744      8742      8745      8746      8744      8742      8745      8747
      8744      8742      8745      8748      8745      8748      8751      8752
      8745      8748      8751      8753      8745      8748      8751      8754
      8746      8745      8748      8749      8746      8745      8748      8750
      8746      8745      8748      8751      8747      8745      8748      8749
      8747      8745      8748      8750      8747      8745      8748      8751
      8748      8751      8754      8755      8748      8751      8754      8756
      8748      8751      8754      8757      8749      8748      8751      8752
      8749      8748      8751      8753      8749      8748      8751      8754
      8750      8748      8751      8752      8750      8748      8751      8753
      8750      8748      8751      8754      8751      8754      8757      8758
      8751      8754      8757      8759      8751      8754      8757      8760
      8752      8751      8754      8755      8752      8751      8754      8756
      8752      8751      8754      8757      8753      8751      8754      8755
      8753      8751      8754      8756      8753      8751      8754      8757
      8755      8754      8757      8758      8755      8754      8757      8759
      8755      8754      8757      8760      8756      8754      8757      8758
      8756      8754      8757      8759      8756      8754      8757      8760
      8761      8764      8767      8768      8761      8764      8767      8769
      8761      8764      8767      8770      8762      8761      8764      8765
      8762      8761      8764      8766      8762      8761      8764      8767
      8763      8761      8764      8765      8763      8761      8764      8766
      8763      8761      8764      8767      8764      8767      8770      8771
      8764      8767      8770      8772      8764      8767      8770      8773
      8765      8764      8767      8768      8765      8764      8767      8769
      8765      8764      8767      8770      8766      8764      8767      8768
      8766      8764      8767      8769      8766      8764      8767      8770
      8767      8770      8773      8774      8767      8770      8773      8775
      8767      8770      8773      8776      8768      8767      8770      8771
      8768      8767      8770      8772      8768      8767      8770      8773
      8769      8767      8770      8771      8769      8767      8770      8772
      8769      8767      8770      8773      8770      8773      8776      8777
      8770      8773      8776      8778      8770      8773      8776      8779
      8771      8770      8773      8774      8771      8770      8773      8775
      8771      8770      8773      8776      8772      8770      8773      8774
      8772      8770      8773      8775      8772      8770      8773      8776
      8773      8776      8779      8780      8773      8776      8779      8781
      8774      8773      8776      8777      8774      8773      8776      8778
      8774      8773      8776      8779      8775      8773      8776      8777
      8775      8773      8776      8778      8775      8773      8776      8779
      8776      8779      8781      8782      8776      8779      8781      8783
      8777      8776      8779      8780      8777      8776      8779      8781
      8778      8776      8779      8780      8778      8776      8779      8781
      8779      8781      8783      8784      8779      8781      8783      8785
      8779      8781      8783      8786      8780      8779      8781      8782
      8780      8779      8781      8783      8781      8783      8786      8787
      8781      8783      8786      8788      8781      8783      8786      8789
      8782      8781      8783      8784      8782      8781      8783      8785
      8782      8781      8783      8786      8783      8786      8789      8790
      8783      8786      8789      8791      8783      8786      8789      8792
      8784      8783      8786      8787      8784      8783      8786      8788
      8784      8783      8786      8789      8785      8783      8786      8787
      8785      8783      8786      8788      8785      8783      8786      8789
      8786      8789      8792      8793      8786      8789      8792      8794
      8786      8789      8792      8795      8787      8786      8789      8790
      8787      8786      8789      8791      8787      8786      8789      8792
      8788      8786      8789      8790      8788      8786      8789      8791
      8788      8786      8789      8792      8789      8792      8795      8796
      8789      8792      8795      8797      8789      8792      8795      8798
      8790      8789      8792      8793      8790      8789      8792      8794
      8790      8789      8792      8795      8791      8789      8792      8793
      8791      8789      8792      8794      8791      8789      8792      8795
      8792      8795      8798      8799      8792      8795      8798      8800
      8792      8795      8798      8801      8793      8792      8795      8796
      8793      8792      8795      8797      8793      8792      8795      8798
      8794      8792      8795      8796      8794      8792      8795      8797
      8794      8792      8795      8798      8795      8798      8801      8802
      8795      8798      8801      8803      8795      8798      8801      8804
      8796      8795      8798      8799      8796      8795      8798      8800
      8796      8795      8798      8801      8797      8795      8798      8799
      8797      8795      8798      8800      8797      8795      8798      8801
      8798      8801      8804      8805      8798      8801      8804      8806
      8798      8801      8804      8807      8799      8798      8801      8802
      8799      8798      8801      8803      8799      8798      8801      8804
      8800      8798      8801      8802      8800      8798      8801      8803
      8800      8798      8801      8804      8802      8801      8804      8805
      8802      8801      8804      8806      8802      8801      8804      8807
      8803      8801      8804      8805      8803      8801      8804      8806
      8803      8801      8804      8807      8808      8812      8815      8816
      8808      8812      8815      8846      8808      8854      8851      8846
      8808      8854      8851      8852      8808      8854      8851      8853
      8809      8808      8810      8811      8809      8808      8812      8813
      8809      8808      8812      8814      8809      8808      8812      8815
      8809      8808      8854      8851      8809      8808      8854      8855
      8809      8808      8854      8856      8810      8808      8812      8813
      8810      8808      8812      8814      8810      8808      8812      8815
      8810      8808      8854      8851      8810      8808      8854      8855
      8810      8808      8854      8856      8811      8810      8808      8812
      8811      8810      8808      8854      8812      8808      8854      8851
      8812      8808      8854      8855      8812      8808      8854      8856
      8812      8815      8816      8817      8812      8815      8816      8818
      8812      8815      8846      8844      8812      8815      8846      8847
      8812      8815      8846      8851      8813      8812      8808      8854
      8813      8812      8815      8816      8813      8812      8815      8846
      8814      8812      8808      8854      8814      8812      8815      8816
      8814      8812      8815      8846      8815      8812      8808      8854
      8815      8816      8818      8819      8815      8816      8818      8820
      8815      8816      8818      8821      8815      8846      8844      8821
      8815      8846      8844      8841      8815      8846      8844      8845
      8815      8846      8847      8848      8815      8846      8847      8849
      8815      8846      8847      8850      8815      8846      8851      8852
      8815      8846      8851      8853      8815      8846      8851      8854
      8816      8815      8846      8844      8816      8815      8846      8847
      8816      8815      8846      8851      8816      8818      8821      8822
      8816      8818      8821      8823      8816      8818      8821      8844
      8817      8816      8815      8846      8817      8816      8818      8819
      8817      8816      8818      8820      8817      8816      8818      8821
      8818      8816      8815      8846      8818      8821      8823      8824
      8818      8821      8823      8825      8818      8821      8823      8833
      8818      8821      8844      8841      8818      8821      8844      8845
      8818      8821      8844      8846      8819      8818      8821      8822
      8819      8818      8821      8823      8819      8818      8821      8844
      8820      8818      8821      8822      8820      8818      8821      8823
      8820      8818      8821      8844      8821      8823      8825      8826
      8821      8823      8825      8827      8821      8823      8825      8828
      8821      8823      8833      8831      8821      8823      8833      8834
      8821      8823      8833      8838      8821      8844      8841      8838
      8821      8844      8841      8842      8821      8844      8841      8843
      8821      8844      8846      8847      8821      8844      8846      8851
      8822      8821      8823      8824      8822      8821      8823      8825
      8822      8821      8823      8833      8822      8821      8844      8841
      8822      8821      8844      8845      8822      8821      8844      8846
      8823      8821      8844      8841      8823      8821      8844      8845
      8823      8821      8844      8846      8823      8825      8828      8829
      8823      8825      8828      8830      8823      8825      8828      8831
      8823      8833      8831      8828      8823      8833      8831      8832
      8823      8833      8831      8857      8823      8833      8834      8835
      8823      8833      8834      8836      8823      8833      8834      8837
      8823      8833      8838      8839      8823      8833      8838      8840
      8823      8833      8838      8841      8824      8823      8821      8844
      8824      8823      8825      8826      8824      8823      8825      8827
      8824      8823      8825      8828      8824      8823      8833      8831
      8824      8823      8833      8834      8824      8823      8833      8838
      8825      8823      8821      8844      8825      8823      8833      8831
      8825      8823      8833      8834      8825      8823      8833      8838
      8825      8828      8831      8832      8825      8828      8831      8833
      8825      8828      8831      8857      8826      8825      8823      8833
      8826      8825      8828      8829      8826      8825      8828      8830
      8826      8825      8828      8831      8827      8825      8823      8833
      8827      8825      8828      8829      8827      8825      8828      8830
      8827      8825      8828      8831      8828      8825      8823      8833
      8828      8831      8833      8834      8828      8831      8833      8838
      8828      8831      8857      8858      8828      8831      8857      8859
      8828      8831      8857      8863      8829      8828      8831      8832
      8829      8828      8831      8833      8829      8828      8831      8857
      8830      8828      8831      8832      8830      8828      8831      8833
      8830      8828      8831      8857      8831      8833      8834      8835
      8831      8833      8834      8836      8831      8833      8834      8837
      8831      8833      8838      8839      8831      8833      8838      8840
      8831      8833      8838      8841      8831      8857      8859      8860
      8831      8857      8859      8861      8831      8857      8859      8862
      8831      8857      8863      8864      8831      8857      8863      8865
      8831      8857      8863      8866      8832      8831      8833      8834
      8832      8831      8833      8838      8832      8831      8857      8858
      8832      8831      8857      8859      8832      8831      8857      8863
      8833      8823      8821      8844      8833      8831      8857      8858
      8833      8831      8857      8859      8833      8831      8857      8863
      8833      8838      8841      8842      8833      8838      8841      8843
      8833      8838      8841      8844      8834      8833      8831      8857
      8834      8833      8838      8839      8834      8833      8838      8840
      8834      8833      8838      8841      8835      8834      8833      8838
      8836      8834      8833      8838      8837      8834      8833      8838
      8838      8833      8831      8857      8838      8841      8844      8845
      8838      8841      8844      8846      8839      8838      8841      8842
      8839      8838      8841      8843      8839      8838      8841      8844
      8840      8838      8841      8842      8840      8838      8841      8843
      8840      8838      8841      8844      8841      8844      8846      8847
      8841      8844      8846      8851      8842      8841      8844      8845
      8842      8841      8844      8846      8843      8841      8844      8845
      8843      8841      8844      8846      8844      8846      8847      8848
      8844      8846      8847      8849      8844      8846      8847      8850
      8844      8846      8851      8852      8844      8846      8851      8853
      8844      8846      8851      8854      8845      8844      8846      8847
      8845      8844      8846      8851      8846      8851      8854      8855
      8846      8851      8854      8856      8847      8846      8851      8852
      8847      8846      8851      8853      8847      8846      8851      8854
      8848      8847      8846      8851      8849      8847      8846      8851
      8850      8847      8846      8851      8852      8851      8854      8855
      8852      8851      8854      8856      8853      8851      8854      8855
      8853      8851      8854      8856      8857      8863      8866      8867
      8857      8863      8866      8868      8857      8863      8866      8869
      8858      8857      8859      8860      8858      8857      8859      8861
      8858      8857      8859      8862      8858      8857      8863      8864
      8858      8857      8863      8865      8858      8857      8863      8866
      8859      8857      8863      8864      8859      8857      8863      8865
      8859      8857      8863      8866      8860      8859      8857      8863
      8861      8859      8857      8863      8862      8859      8857      8863
      8863      8866      8869      8870      8863      8866      8869      8871
      8863      8866      8869      8872      8864      8863      8866      8867
      8864      8863      8866      8868      8864      8863      8866      8869
      8865      8863      8866      8867      8865      8863      8866      8868
      8865      8863      8866      8869      8866      8869      8872      8873
      8866      8869      8872      8874      8866      8869      8872      8878
      8867      8866      8869      8870      8867      8866      8869      8871
      8867      8866      8869      8872      8868      8866      8869      8870
      8868      8866      8869      8871      8868      8866      8869      8872
      8869      8872      8874      8875      8869      8872      8874      8876
      8869      8872      8874      8877      8869      8872      8878      8879
      8869      8872      8878      8880      8869      8872      8878      8881
      8870      8869      8872      8873      8870      8869      8872      8874
      8870      8869      8872      8878      8871      8869      8872      8873
      8871      8869      8872      8874      8871      8869      8872      8878
      8873      8872      8874      8875      8873      8872      8874      8876
      8873      8872      8874      8877      8873      8872      8878      8879
      8873      8872      8878      8880      8873      8872      8878      8881
      8874      8872      8878      8879      8874      8872      8878      8880
      8874      8872      8878      8881      8875      8874      8872      8878
      8876      8874      8872      8878      8877      8874      8872      8878
      8882      8886      8889      8890      8882      8886      8889      8891
      8882      8886      8889      8896      8883      8882      8886      8887
      8883      8882      8886      8888      8883      8882      8886      8889
      8884      8882      8886      8887      8884      8882      8886      8888
      8884      8882      8886      8889      8885      8882      8886      8887
      8885      8882      8886      8888      8885      8882      8886      8889
      8886      8889      8896      8892      8887      8886      8889      8890
      8887      8886      8889      8891      8887      8886      8889      8896
      8888      8886      8889      8890      8888      8886      8889      8891
      8888      8886      8889      8896      8889      8896      8892      8893
      8889      8896      8892      8894      8889      8896      8892      8895
      8890      8889      8896      8892      8891      8889      8896      8892
      8892      8895      8897      8898      8892      8895      8897      8899
      8892      8895      8897      8900      8893      8892      8895      8897
      8894      8892      8895      8897      8895      8897      8900      8901
      8895      8897      8900      8902      8895      8897      8900      8908
      8896      8892      8895      8897      8897      8900      8902      8903
      8897      8900      8908      8909      8897      8900      8908      8910
      8897      8900      8908      8911      8898      8897      8900      8901
      8898      8897      8900      8902      8898      8897      8900      8908
      8899      8897      8900      8901      8899      8897      8900      8902
      8899      8897      8900      8908      8900      8902      8903      8904
      8900      8902      8903      8905      8900      8908      8911      8912
      8901      8900      8902      8903      8901      8900      8908      8909
      8901      8900      8908      8910      8901      8900      8908      8911
      8902      8900      8908      8909      8902      8900      8908      8910
      8902      8900      8908      8911      8902      8903      8905      8906
      8902      8903      8905      8907      8902      8903      8905      8917
      8903      8902      8900      8908      8903      8905      8917      8918
      8903      8905      8917      8919      8903      8905      8917      8920
      8904      8903      8905      8906      8904      8903      8905      8907
      8904      8903      8905      8917      8905      8917      8920      8921
      8905      8917      8920      8922      8905      8917      8920      8923
      8906      8905      8917      8918      8906      8905      8917      8919
      8906      8905      8917      8920      8907      8905      8917      8918
      8907      8905      8917      8919      8907      8905      8917      8920
      8908      8911      8912      8913      8908      8911      8912      8914
      8909      8908      8911      8912      8910      8908      8911      8912
      8911      8912      8914      8915      8911      8912      8914      8916
      8911      8912      8914      8964      8912      8914      8964      8965
      8912      8914      8964      8966      8912      8914      8964      8967
      8913      8912      8914      8915      8913      8912      8914      8916
      8913      8912      8914      8964      8914      8964      8967      8968
      8914      8964      8967      8969      8914      8964      8967      8970
      8915      8914      8964      8965      8915      8914      8964      8966
      8915      8914      8964      8967      8916      8914      8964      8965
      8916      8914      8964      8966      8916      8914      8964      8967
      8917      8920      8923      8924      8917      8920      8923      8925
      8917      8920      8923      8926      8918      8917      8920      8921
      8918      8917      8920      8922      8918      8917      8920      8923
      8919      8917      8920      8921      8919      8917      8920      8922
      8919      8917      8920      8923      8920      8923      8926      8927
      8920      8923      8926      8928      8920      8923      8926      8929
      8921      8920      8923      8924      8921      8920      8923      8925
      8921      8920      8923      8926      8922      8920      8923      8924
      8922      8920      8923      8925      8922      8920      8923      8926
      8923      8926      8929      8930      8923      8926      8929      8931
      8923      8926      8929      8932      8924      8923      8926      8927
      8924      8923      8926      8928      8924      8923      8926      8929
      8925      8923      8926      8927      8925      8923      8926      8928
      8925      8923      8926      8929      8926      8929      8932      8933
      8926      8929      8932      8934      8926      8929      8932      8935
      8927      8926      8929      8930      8927      8926      8929      8931
      8927      8926      8929      8932      8928      8926      8929      8930
      8928      8926      8929      8931      8928      8926      8929      8932
      8929      8932      8935      8936      8929      8932      8935      8937
      8930      8929      8932      8933      8930      8929      8932      8934
      8930      8929      8932      8935      8931      8929      8932      8933
      8931      8929      8932      8934      8931      8929      8932      8935
      8932      8935      8937      8938      8932      8935      8937      8939
      8933      8932      8935      8936      8933      8932      8935      8937
      8934      8932      8935      8936      8934      8932      8935      8937
      8935      8937      8939      8940      8935      8937      8939      8941
      8935      8937      8939      8942      8936      8935      8937      8938
      8936      8935      8937      8939      8937      8939      8942      8943
      8937      8939      8942      8944      8937      8939      8942      8945
      8938      8937      8939      8940      8938      8937      8939      8941
      8938      8937      8939      8942      8939      8942      8945      8946
      8939      8942      8945      8947      8939      8942      8945      8948
      8940      8939      8942      8943      8940      8939      8942      8944
      8940      8939      8942      8945      8941      8939      8942      8943
      8941      8939      8942      8944      8941      8939      8942      8945
      8942      8945      8948      8949      8942      8945      8948      8950
      8942      8945      8948      8951      8943      8942      8945      8946
      8943      8942      8945      8947      8943      8942      8945      8948
      8944      8942      8945      8946      8944      8942      8945      8947
      8944      8942      8945      8948      8945      8948      8951      8952
      8945      8948      8951      8953      8945      8948      8951      8954
      8946      8945      8948      8949      8946      8945      8948      8950
      8946      8945      8948      8951      8947      8945      8948      8949
      8947      8945      8948      8950      8947      8945      8948      8951
      8948      8951      8954      8955      8948      8951      8954      8956
      8948      8951      8954      8957      8949      8948      8951      8952
      8949      8948      8951      8953      8949      8948      8951      8954
      8950      8948      8951      8952      8950      8948      8951      8953
      8950      8948      8951      8954      8951      8954      8957      8958
      8951      8954      8957      8959      8951      8954      8957      8960
      8952      8951      8954      8955      8952      8951      8954      8956
      8952      8951      8954      8957      8953      8951      8954      8955
      8953      8951      8954      8956      8953      8951      8954      8957
      8954      8957      8960      8961      8954      8957      8960      8962
      8954      8957      8960      8963      8955      8954      8957      8958
      8955      8954      8957      8959      8955      8954      8957      8960
      8956      8954      8957      8958      8956      8954      8957      8959
      8956      8954      8957      8960      8958      8957      8960      8961
      8958      8957      8960      8962      8958      8957      8960      8963
      8959      8957      8960      8961      8959      8957      8960      8962
      8959      8957      8960      8963      8964      8967      8970      8971
      8964      8967      8970      8972      8964      8967      8970      8973
      8965      8964      8967      8968      8965      8964      8967      8969
      8965      8964      8967      8970      8966      8964      8967      8968
      8966      8964      8967      8969      8966      8964      8967      8970
      8967      8970      8973      8974      8967      8970      8973      8975
      8967      8970      8973      8976      8968      8967      8970      8971
      8968      8967      8970      8972      8968      8967      8970      8973
      8969      8967      8970      8971      8969      8967      8970      8972
      8969      8967      8970      8973      8970      8973      8976      8977
      8970      8973      8976      8978      8970      8973      8976      8979
      8971      8970      8973      8974      8971      8970      8973      8975
      8971      8970      8973      8976      8972      8970      8973      8974
      8972      8970      8973      8975      8972      8970      8973      8976
      8973      8976      8979      8980      8973      8976      8979      8981
      8973      8976      8979      8982      8974      8973      8976      8977
      8974      8973      8976      8978      8974      8973      8976      8979
      8975      8973      8976      8977      8975      8973      8976      8978
      8975      8973      8976      8979      8976      8979      8982      8983
      8976      8979      8982      8984      8977      8976      8979      8980
      8977      8976      8979      8981      8977      8976      8979      8982
      8978      8976      8979      8980      8978      8976      8979      8981
      8978      8976      8979      8982      8979      8982      8984      8985
      8979      8982      8984      8986      8980      8979      8982      8983
      8980      8979      8982      8984      8981      8979      8982      8983
      8981      8979      8982      8984      8982      8984      8986      8987
      8982      8984      8986      8988      8982      8984      8986      8989
      8983      8982      8984      8985      8983      8982      8984      8986
      8984      8986      8989      8990      8984      8986      8989      8991
      8984      8986      8989      8992      8985      8984      8986      8987
      8985      8984      8986      8988      8985      8984      8986      8989
      8986      8989      8992      8993      8986      8989      8992      8994
      8986      8989      8992      8995      8987      8986      8989      8990
      8987      8986      8989      8991      8987      8986      8989      8992
      8988      8986      8989      8990      8988      8986      8989      8991
      8988      8986      8989      8992      8989      8992      8995      8996
      8989      8992      8995      8997      8989      8992      8995      8998
      8990      8989      8992      8993      8990      8989      8992      8994
      8990      8989      8992      8995      8991      8989      8992      8993
      8991      8989      8992      8994      8991      8989      8992      8995
      8992      8995      8998      8999      8992      8995      8998      9000
      8992      8995      8998      9001      8993      8992      8995      8996
      8993      8992      8995      8997      8993      8992      8995      8998
      8994      8992      8995      8996      8994      8992      8995      8997
      8994      8992      8995      8998      8995      8998      9001      9002
      8995      8998      9001      9003      8995      8998      9001      9004
      8996      8995      8998      8999      8996      8995      8998      9000
      8996      8995      8998      9001      8997      8995      8998      8999
      8997      8995      8998      9000      8997      8995      8998      9001
      8998      9001      9004      9005      8998      9001      9004      9006
      8998      9001      9004      9007      8999      8998      9001      9002
      8999      8998      9001      9003      8999      8998      9001      9004
      9000      8998      9001      9002      9000      8998      9001      9003
      9000      8998      9001      9004      9001      9004      9007      9008
      9001      9004      9007      9009      9001      9004      9007      9010
      9002      9001      9004      9005      9002      9001      9004      9006
      9002      9001      9004      9007      9003      9001      9004      9005
      9003      9001      9004      9006      9003      9001      9004      9007
      9005      9004      9007      9008      9005      9004      9007      9009
      9005      9004      9007      9010      9006      9004      9007      9008
      9006      9004      9007      9009      9006      9004      9007      9010
      9011      9015      9018      9019      9011      9015      9018      9049
      9011      9057      9054      9049      9011      9057      9054      9055
      9011      9057      9054      9056      9012      9011      9013      9014
      9012      9011      9015      9016      9012      9011      9015      9017
      9012      9011      9015      9018      9012      9011      9057      9054
      9012      9011      9057      9058      9012      9011      9057      9059
      9013      9011      9015      9016      9013      9011      9015      9017
      9013      9011      9015      9018      9013      9011      9057      9054
      9013      9011      9057      9058      9013      9011      9057      9059
      9014      9013      9011      9015      9014      9013      9011      9057
      9015      9011      9057      9054      9015      9011      9057      9058
      9015      9011      9057      9059      9015      9018      9019      9020
      9015      9018      9019      9021      9015      9018      9049      9047
      9015      9018      9049      9050      9015      9018      9049      9054
      9016      9015      9011      9057      9016      9015      9018      9019
      9016      9015      9018      9049      9017      9015      9011      9057
      9017      9015      9018      9019      9017      9015      9018      9049
      9018      9015      9011      9057      9018      9019      9021      9022
      9018      9019      9021      9023      9018      9019      9021      9024
      9018      9049      9047      9024      9018      9049      9047      9044
      9018      9049      9047      9048      9018      9049      9050      9051
      9018      9049      9050      9052      9018      9049      9050      9053
      9018      9049      9054      9055      9018      9049      9054      9056
      9018      9049      9054      9057      9019      9018      9049      9047
      9019      9018      9049      9050      9019      9018      9049      9054
      9019      9021      9024      9025      9019      9021      9024      9026
      9019      9021      9024      9047      9020      9019      9018      9049
      9020      9019      9021      9022      9020      9019      9021      9023
      9020      9019      9021      9024      9021      9019      9018      9049
      9021      9024      9026      9027      9021      9024      9026      9028
      9021      9024      9026      9036      9021      9024      9047      9044
      9021      9024      9047      9048      9021      9024      9047      9049
      9022      9021      9024      9025      9022      9021      9024      9026
      9022      9021      9024      9047      9023      9021      9024      9025
      9023      9021      9024      9026      9023      9021      9024      9047
      9024      9026      9028      9029      9024      9026      9028      9030
      9024      9026      9028      9031      9024      9026      9036      9034
      9024      9026      9036      9037      9024      9026      9036      9041
      9024      9047      9044      9041      9024      9047      9044      9045
      9024      9047      9044      9046      9024      9047      9049      9050
      9024      9047      9049      9054      9025      9024      9026      9027
      9025      9024      9026      9028      9025      9024      9026      9036
      9025      9024      9047      9044      9025      9024      9047      9048
      9025      9024      9047      9049      9026      9024      9047      9044
      9026      9024      9047      9048      9026      9024      9047      9049
      9026      9028      9031      9032      9026      9028      9031      9033
      9026      9028      9031      9034      9026      9036      9034      9031
      9026      9036      9034      9035      9026      9036      9034      9060
      9026      9036      9037      9038      9026      9036      9037      9039
      9026      9036      9037      9040      9026      9036      9041      9042
      9026      9036      9041      9043      9026      9036      9041      9044
      9027      9026      9024      9047      9027      9026      9028      9029
      9027      9026      9028      9030      9027      9026      9028      9031
      9027      9026      9036      9034      9027      9026      9036      9037
      9027      9026      9036      9041      9028      9026      9024      9047
      9028      9026      9036      9034      9028      9026      9036      9037
      9028      9026      9036      9041      9028      9031      9034      9035
      9028      9031      9034      9036      9028      9031      9034      9060
      9029      9028      9026      9036      9029      9028      9031      9032
      9029      9028      9031      9033      9029      9028      9031      9034
      9030      9028      9026      9036      9030      9028      9031      9032
      9030      9028      9031      9033      9030      9028      9031      9034
      9031      9028      9026      9036      9031      9034      9036      9037
      9031      9034      9036      9041      9031      9034      9060      9061
      9031      9034      9060      9062      9031      9034      9060      9066
      9032      9031      9034      9035      9032      9031      9034      9036
      9032      9031      9034      9060      9033      9031      9034      9035
      9033      9031      9034      9036      9033      9031      9034      9060
      9034      9036      9037      9038      9034      9036      9037      9039
      9034      9036      9037      9040      9034      9036      9041      9042
      9034      9036      9041      9043      9034      9036      9041      9044
      9034      9060      9062      9063      9034      9060      9062      9064
      9034      9060      9062      9065      9034      9060      9066      9067
      9034      9060      9066      9068      9034      9060      9066      9069
      9035      9034      9036      9037      9035      9034      9036      9041
      9035      9034      9060      9061      9035      9034      9060      9062
      9035      9034      9060      9066      9036      9026      9024      9047
      9036      9034      9060      9061      9036      9034      9060      9062
      9036      9034      9060      9066      9036      9041      9044      9045
      9036      9041      9044      9046      9036      9041      9044      9047
      9037      9036      9034      9060      9037      9036      9041      9042
      9037      9036      9041      9043      9037      9036      9041      9044
      9038      9037      9036      9041      9039      9037      9036      9041
      9040      9037      9036      9041      9041      9036      9034      9060
      9041      9044      9047      9048      9041      9044      9047      9049
      9042      9041      9044      9045      9042      9041      9044      9046
      9042      9041      9044      9047      9043      9041      9044      9045
      9043      9041      9044      9046      9043      9041      9044      9047
      9044      9047      9049      9050      9044      9047      9049      9054
      9045      9044      9047      9048      9045      9044      9047      9049
      9046      9044      9047      9048      9046      9044      9047      9049
      9047      9049      9050      9051      9047      9049      9050      9052
      9047      9049      9050      9053      9047      9049      9054      9055
      9047      9049      9054      9056      9047      9049      9054      9057
      9048      9047      9049      9050      9048      9047      9049      9054
      9049      9054      9057      9058      9049      9054      9057      9059
      9050      9049      9054      9055      9050      9049      9054      9056
      9050      9049      9054      9057      9051      9050      9049      9054
      9052      9050      9049      9054      9053      9050      9049      9054
      9055      9054      9057      9058      9055      9054      9057      9059
      9056      9054      9057      9058      9056      9054      9057      9059
      9060      9066      9069      9070      9060      9066      9069      9071
      9060      9066      9069      9072      9061      9060      9062      9063
      9061      9060      9062      9064      9061      9060      9062      9065
      9061      9060      9066      9067      9061      9060      9066      9068
      9061      9060      9066      9069      9062      9060      9066      9067
      9062      9060      9066      9068      9062      9060      9066      9069
      9063      9062      9060      9066      9064      9062      9060      9066
      9065      9062      9060      9066      9066      9069      9072      9073
      9066      9069      9072      9074      9066      9069      9072      9075
      9067      9066      9069      9070      9067      9066      9069      9071
      9067      9066      9069      9072      9068      9066      9069      9070
      9068      9066      9069      9071      9068      9066      9069      9072
      9069      9072      9075      9076      9069      9072      9075      9077
      9069      9072      9075      9081      9070      9069      9072      9073
      9070      9069      9072      9074      9070      9069      9072      9075
      9071      9069      9072      9073      9071      9069      9072      9074
      9071      9069      9072      9075      9072      9075      9077      9078
      9072      9075      9077      9079      9072      9075      9077      9080
      9072      9075      9081      9082      9072      9075      9081      9083
      9072      9075      9081      9084      9073      9072      9075      9076
      9073      9072      9075      9077      9073      9072      9075      9081
      9074      9072      9075      9076      9074      9072      9075      9077
      9074      9072      9075      9081      9076      9075      9077      9078
      9076      9075      9077      9079      9076      9075      9077      9080
      9076      9075      9081      9082      9076      9075      9081      9083
      9076      9075      9081      9084      9077      9075      9081      9082
      9077      9075      9081      9083      9077      9075      9081      9084
      9078      9077      9075      9081      9079      9077      9075      9081
      9080      9077      9075      9081      9085      9089      9092      9093
      9085      9089      9092      9123      9085      9131      9128      9123
      9085      9131      9128      9129      9085      9131      9128      9130
      9086      9085      9087      9088      9086      9085      9089      9090
      9086      9085      9089      9091      9086      9085      9089      9092
      9086      9085      9131      9128      9086      9085      9131      9132
      9086      9085      9131      9133      9087      9085      9089      9090
      9087      9085      9089      9091      9087      9085      9089      9092
      9087      9085      9131      9128      9087      9085      9131      9132
      9087      9085      9131      9133      9088      9087      9085      9089
      9088      9087      9085      9131      9089      9085      9131      9128
      9089      9085      9131      9132      9089      9085      9131      9133
      9089      9092      9093      9094      9089      9092      9093      9095
      9089      9092      9123      9121      9089      9092      9123      9124
      9089      9092      9123      9128      9090      9089      9085      9131
      9090      9089      9092      9093      9090      9089      9092      9123
      9091      9089      9085      9131      9091      9089      9092      9093
      9091      9089      9092      9123      9092      9089      9085      9131
      9092      9093      9095      9096      9092      9093      9095      9097
      9092      9093      9095      9098      9092      9123      9121      9098
      9092      9123      9121      9118      9092      9123      9121      9122
      9092      9123      9124      9125      9092      9123      9124      9126
      9092      9123      9124      9127      9092      9123      9128      9129
      9092      9123      9128      9130      9092      9123      9128      9131
      9093      9092      9123      9121      9093      9092      9123      9124
      9093      9092      9123      9128      9093      9095      9098      9099
      9093      9095      9098      9100      9093      9095      9098      9121
      9094      9093      9092      9123      9094      9093      9095      9096
      9094      9093      9095      9097      9094      9093      9095      9098
      9095      9093      9092      9123      9095      9098      9100      9101
      9095      9098      9100      9102      9095      9098      9100      9110
      9095      9098      9121      9118      9095      9098      9121      9122
      9095      9098      9121      9123      9096      9095      9098      9099
      9096      9095      9098      9100      9096      9095      9098      9121
      9097      9095      9098      9099      9097      9095      9098      9100
      9097      9095      9098      9121      9098      9100      9102      9103
      9098      9100      9102      9104      9098      9100      9102      9105
      9098      9100      9110      9108      9098      9100      9110      9111
      9098      9100      9110      9115      9098      9121      9118      9115
      9098      9121      9118      9119      9098      9121      9118      9120
      9098      9121      9123      9124      9098      9121      9123      9128
      9099      9098      9100      9101      9099      9098      9100      9102
      9099      9098      9100      9110      9099      9098      9121      9118
      9099      9098      9121      9122      9099      9098      9121      9123
      9100      9098      9121      9118      9100      9098      9121      9122
      9100      9098      9121      9123      9100      9102      9105      9106
      9100      9102      9105      9107      9100      9102      9105      9108
      9100      9110      9108      9105      9100      9110      9108      9109
      9100      9110      9108      9134      9100      9110      9111      9112
      9100      9110      9111      9113      9100      9110      9111      9114
      9100      9110      9115      9116      9100      9110      9115      9117
      9100      9110      9115      9118      9101      9100      9098      9121
      9101      9100      9102      9103      9101      9100      9102      9104
      9101      9100      9102      9105      9101      9100      9110      9108
      9101      9100      9110      9111      9101      9100      9110      9115
      9102      9100      9098      9121      9102      9100      9110      9108
      9102      9100      9110      9111      9102      9100      9110      9115
      9102      9105      9108      9109      9102      9105      9108      9110
      9102      9105      9108      9134      9103      9102      9100      9110
      9103      9102      9105      9106      9103      9102      9105      9107
      9103      9102      9105      9108      9104      9102      9100      9110
      9104      9102      9105      9106      9104      9102      9105      9107
      9104      9102      9105      9108      9105      9102      9100      9110
      9105      9108      9110      9111      9105      9108      9110      9115
      9105      9108      9134      9135      9105      9108      9134      9136
      9105      9108      9134      9140      9106      9105      9108      9109
      9106      9105      9108      9110      9106      9105      9108      9134
      9107      9105      9108      9109      9107      9105      9108      9110
      9107      9105      9108      9134      9108      9110      9111      9112
      9108      9110      9111      9113      9108      9110      9111      9114
      9108      9110      9115      9116      9108      9110      9115      9117
      9108      9110      9115      9118      9108      9134      9136      9137
      9108      9134      9136      9138      9108      9134      9136      9139
      9108      9134      9140      9141      9108      9134      9140      9142
      9108      9134      9140      9143      9109      9108      9110      9111
      9109      9108      9110      9115      9109      9108      9134      9135
      9109      9108      9134      9136      9109      9108      9134      9140
      9110      9100      9098      9121      9110      9108      9134      9135
      9110      9108      9134      9136      9110      9108      9134      9140
      9110      9115      9118      9119      9110      9115      9118      9120
      9110      9115      9118      9121      9111      9110      9108      9134
      9111      9110      9115      9116      9111      9110      9115      9117
      9111      9110      9115      9118      9112      9111      9110      9115
      9113      9111      9110      9115      9114      9111      9110      9115
      9115      9110      9108      9134      9115      9118      9121      9122
      9115      9118      9121      9123      9116      9115      9118      9119
      9116      9115      9118      9120      9116      9115      9118      9121
      9117      9115      9118      9119      9117      9115      9118      9120
      9117      9115      9118      9121      9118      9121      9123      9124
      9118      9121      9123      9128      9119      9118      9121      9122
      9119      9118      9121      9123      9120      9118      9121      9122
      9120      9118      9121      9123      9121      9123      9124      9125
      9121      9123      9124      9126      9121      9123      9124      9127
      9121      9123      9128      9129      9121      9123      9128      9130
      9121      9123      9128      9131      9122      9121      9123      9124
      9122      9121      9123      9128      9123      9128      9131      9132
      9123      9128      9131      9133      9124      9123      9128      9129
      9124      9123      9128      9130      9124      9123      9128      9131
      9125      9124      9123      9128      9126      9124      9123      9128
      9127      9124      9123      9128      9129      9128      9131      9132
      9129      9128      9131      9133      9130      9128      9131      9132
      9130      9128      9131      9133      9134      9140      9143      9144
      9134      9140      9143      9145      9134      9140      9143      9146
      9135      9134      9136      9137      9135      9134      9136      9138
      9135      9134      9136      9139      9135      9134      9140      9141
      9135      9134      9140      9142      9135      9134      9140      9143
      9136      9134      9140      9141      9136      9134      9140      9142
      9136      9134      9140      9143      9137      9136      9134      9140
      9138      9136      9134      9140      9139      9136      9134      9140
      9140      9143      9146      9147      9140      9143      9146      9148
      9140      9143      9146      9149      9141      9140      9143      9144
      9141      9140      9143      9145      9141      9140      9143      9146
      9142      9140      9143      9144      9142      9140      9143      9145
      9142      9140      9143      9146      9143      9146      9149      9150
      9143      9146      9149      9151      9143      9146      9149      9155
      9144      9143      9146      9147      9144      9143      9146      9148
      9144      9143      9146      9149      9145      9143      9146      9147
      9145      9143      9146      9148      9145      9143      9146      9149
      9146      9149      9151      9152      9146      9149      9151      9153
      9146      9149      9151      9154      9146      9149      9155      9156
      9146      9149      9155      9157      9146      9149      9155      9158
      9147      9146      9149      9150      9147      9146      9149      9151
      9147      9146      9149      9155      9148      9146      9149      9150
      9148      9146      9149      9151      9148      9146      9149      9155
      9150      9149      9151      9152      9150      9149      9151      9153
      9150      9149      9151      9154      9150      9149      9155      9156
      9150      9149      9155      9157      9150      9149      9155      9158
      9151      9149      9155      9156      9151      9149      9155      9157
      9151      9149      9155      9158      9152      9151      9149      9155
      9153      9151      9149      9155      9154      9151      9149      9155
      9159      9163      9166      9167      9159      9163      9166      9168
      9159      9163      9166      9173      9160      9159      9163      9164
      9160      9159      9163      9165      9160      9159      9163      9166
      9161      9159      9163      9164      9161      9159      9163      9165
      9161      9159      9163      9166      9162      9159      9163      9164
      9162      9159      9163      9165      9162      9159      9163      9166
      9163      9166      9173      9169      9164      9163      9166      9167
      9164      9163      9166      9168      9164      9163      9166      9173
      9165      9163      9166      9167      9165      9163      9166      9168
      9165      9163      9166      9173      9166      9173      9169      9170
      9166      9173      9169      9171      9166      9173      9169      9172
      9167      9166      9173      9169      9168      9166      9173      9169
      9169      9172      9174      9175      9169      9172      9174      9176
      9169      9172      9174      9177      9170      9169      9172      9174
      9171      9169      9172      9174      9172      9174      9177      9178
      9172      9174      9177      9179      9172      9174      9177      9185
      9173      9169      9172      9174      9174      9177      9179      9180
      9174      9177      9185      9186      9174      9177      9185      9187
      9174      9177      9185      9188      9175      9174      9177      9178
      9175      9174      9177      9179      9175      9174      9177      9185
      9176      9174      9177      9178      9176      9174      9177      9179
      9176      9174      9177      9185      9177      9179      9180      9181
      9177      9179      9180      9182      9177      9185      9188      9189
      9178      9177      9179      9180      9178      9177      9185      9186
      9178      9177      9185      9187      9178      9177      9185      9188
      9179      9177      9185      9186      9179      9177      9185      9187
      9179      9177      9185      9188      9179      9180      9182      9183
      9179      9180      9182      9184      9179      9180      9182      9194
      9180      9179      9177      9185      9180      9182      9194      9195
      9180      9182      9194      9196      9180      9182      9194      9197
      9181      9180      9182      9183      9181      9180      9182      9184
      9181      9180      9182      9194      9182      9194      9197      9198
      9182      9194      9197      9199      9182      9194      9197      9200
      9183      9182      9194      9195      9183      9182      9194      9196
      9183      9182      9194      9197      9184      9182      9194      9195
      9184      9182      9194      9196      9184      9182      9194      9197
      9185      9188      9189      9190      9185      9188      9189      9191
      9186      9185      9188      9189      9187      9185      9188      9189
      9188      9189      9191      9192      9188      9189      9191      9193
      9188      9189      9191      9241      9189      9191      9241      9242
      9189      9191      9241      9243      9189      9191      9241      9244
      9190      9189      9191      9192      9190      9189      9191      9193
      9190      9189      9191      9241      9191      9241      9244      9245
      9191      9241      9244      9246      9191      9241      9244      9247
      9192      9191      9241      9242      9192      9191      9241      9243
      9192      9191      9241      9244      9193      9191      9241      9242
      9193      9191      9241      9243      9193      9191      9241      9244
      9194      9197      9200      9201      9194      9197      9200      9202
      9194      9197      9200      9203      9195      9194      9197      9198
      9195      9194      9197      9199      9195      9194      9197      9200
      9196      9194      9197      9198      9196      9194      9197      9199
      9196      9194      9197      9200      9197      9200      9203      9204
      9197      9200      9203      9205      9197      9200      9203      9206
      9198      9197      9200      9201      9198      9197      9200      9202
      9198      9197      9200      9203      9199      9197      9200      9201
      9199      9197      9200      9202      9199      9197      9200      9203
      9200      9203      9206      9207      9200      9203      9206      9208
      9200      9203      9206      9209      9201      9200      9203      9204
      9201      9200      9203      9205      9201      9200      9203      9206
      9202      9200      9203      9204      9202      9200      9203      9205
      9202      9200      9203      9206      9203      9206      9209      9210
      9203      9206      9209      9211      9203      9206      9209      9212
      9204      9203      9206      9207      9204      9203      9206      9208
      9204      9203      9206      9209      9205      9203      9206      9207
      9205      9203      9206      9208      9205      9203      9206      9209
      9206      9209      9212      9213      9206      9209      9212      9214
      9207      9206      9209      9210      9207      9206      9209      9211
      9207      9206      9209      9212      9208      9206      9209      9210
      9208      9206      9209      9211      9208      9206      9209      9212
      9209      9212      9214      9215      9209      9212      9214      9216
      9210      9209      9212      9213      9210      9209      9212      9214
      9211      9209      9212      9213      9211      9209      9212      9214
      9212      9214      9216      9217      9212      9214      9216      9218
      9212      9214      9216      9219      9213      9212      9214      9215
      9213      9212      9214      9216      9214      9216      9219      9220
      9214      9216      9219      9221      9214      9216      9219      9222
      9215      9214      9216      9217      9215      9214      9216      9218
      9215      9214      9216      9219      9216      9219      9222      9223
      9216      9219      9222      9224      9216      9219      9222      9225
      9217      9216      9219      9220      9217      9216      9219      9221
      9217      9216      9219      9222      9218      9216      9219      9220
      9218      9216      9219      9221      9218      9216      9219      9222
      9219      9222      9225      9226      9219      9222      9225      9227
      9219      9222      9225      9228      9220      9219      9222      9223
      9220      9219      9222      9224      9220      9219      9222      9225
      9221      9219      9222      9223      9221      9219      9222      9224
      9221      9219      9222      9225      9222      9225      9228      9229
      9222      9225      9228      9230      9222      9225      9228      9231
      9223      9222      9225      9226      9223      9222      9225      9227
      9223      9222      9225      9228      9224      9222      9225      9226
      9224      9222      9225      9227      9224      9222      9225      9228
      9225      9228      9231      9232      9225      9228      9231      9233
      9225      9228      9231      9234      9226      9225      9228      9229
      9226      9225      9228      9230      9226      9225      9228      9231
      9227      9225      9228      9229      9227      9225      9228      9230
      9227      9225      9228      9231      9228      9231      9234      9235
      9228      9231      9234      9236      9228      9231      9234      9237
      9229      9228      9231      9232      9229      9228      9231      9233
      9229      9228      9231      9234      9230      9228      9231      9232
      9230      9228      9231      9233      9230      9228      9231      9234
      9231      9234      9237      9238      9231      9234      9237      9239
      9231      9234      9237      9240      9232      9231      9234      9235
      9232      9231      9234      9236      9232      9231      9234      9237
      9233      9231      9234      9235      9233      9231      9234      9236
      9233      9231      9234      9237      9235      9234      9237      9238
      9235      9234      9237      9239      9235      9234      9237      9240
      9236      9234      9237      9238      9236      9234      9237      9239
      9236      9234      9237      9240      9241      9244      9247      9248
      9241      9244      9247      9249      9241      9244      9247      9250
      9242      9241      9244      9245      9242      9241      9244      9246
      9242      9241      9244      9247      9243      9241      9244      9245
      9243      9241      9244      9246      9243      9241      9244      9247
      9244      9247      9250      9251      9244      9247      9250      9252
      9244      9247      9250      9253      9245      9244      9247      9248
      9245      9244      9247      9249      9245      9244      9247      9250
      9246      9244      9247      9248      9246      9244      9247      9249
      9246      9244      9247      9250      9247      9250      9253      9254
      9247      9250      9253      9255      9247      9250      9253      9256
      9248      9247      9250      9251      9248      9247      9250      9252
      9248      9247      9250      9253      9249      9247      9250      9251
      9249      9247      9250      9252      9249      9247      9250      9253
      9250      9253      9256      9257      9250      9253      9256      9258
      9250      9253      9256      9259      9251      9250      9253      9254
      9251      9250      9253      9255      9251      9250      9253      9256
      9252      9250      9253      9254      9252      9250      9253      9255
      9252      9250      9253      9256      9253      9256      9259      9260
      9253      9256      9259      9261      9254      9253      9256      9257
      9254      9253      9256      9258      9254      9253      9256      9259
      9255      9253      9256      9257      9255      9253      9256      9258
      9255      9253      9256      9259      9256      9259      9261      9262
      9256      9259      9261      9263      9257      9256      9259      9260
      9257      9256      9259      9261      9258      9256      9259      9260
      9258      9256      9259      9261      9259      9261      9263      9264
      9259      9261      9263      9265      9259      9261      9263      9266
      9260      9259      9261      9262      9260      9259      9261      9263
      9261      9263      9266      9267      9261      9263      9266      9268
      9261      9263      9266      9269      9262      9261      9263      9264
      9262      9261      9263      9265      9262      9261      9263      9266
      9263      9266      9269      9270      9263      9266      9269      9271
      9263      9266      9269      9272      9264      9263      9266      9267
      9264      9263      9266      9268      9264      9263      9266      9269
      9265      9263      9266      9267      9265      9263      9266      9268
      9265      9263      9266      9269      9266      9269      9272      9273
      9266      9269      9272      9274      9266      9269      9272      9275
      9267      9266      9269      9270      9267      9266      9269      9271
      9267      9266      9269      9272      9268      9266      9269      9270
      9268      9266      9269      9271      9268      9266      9269      9272
      9269      9272      9275      9276      9269      9272      9275      9277
      9269      9272      9275      9278      9270      9269      9272      9273
      9270      9269      9272      9274      9270      9269      9272      9275
      9271      9269      9272      9273      9271      9269      9272      9274
      9271      9269      9272      9275      9272      9275      9278      9279
      9272      9275      9278      9280      9272      9275      9278      9281
      9273      9272      9275      9276      9273      9272      9275      9277
      9273      9272      9275      9278      9274      9272      9275      9276
      9274      9272      9275      9277      9274      9272      9275      9278
      9275      9278      9281      9282      9275      9278      9281      9283
      9275      9278      9281      9284      9276      9275      9278      9279
      9276      9275      9278      9280      9276      9275      9278      9281
      9277      9275      9278      9279      9277      9275      9278      9280
      9277      9275      9278      9281      9278      9281      9284      9285
      9278      9281      9284      9286      9278      9281      9284      9287
      9279      9278      9281      9282      9279      9278      9281      9283
      9279      9278      9281      9284      9280      9278      9281      9282
      9280      9278      9281      9283      9280      9278      9281      9284
      9282      9281      9284      9285      9282      9281      9284      9286
      9282      9281      9284      9287      9283      9281      9284      9285
      9283      9281      9284      9286      9283      9281      9284      9287
      9288      9289      9304      9305      9288      9289      9304      9306
      9288      9289      9304      9310      9289      9288      9292      9293
      9289      9288      9292      9294      9289      9288      9292      9295
      9289      9288      9296      9297      9289      9288      9296      9298
      9289      9288      9296      9299      9289      9288      9300      9301
      9289      9288      9300      9302      9289      9288      9300      9303
      9289      9304      9310      9307      9290      9289      9288      9292
      9290      9289      9288      9296      9290      9289      9288      9300
      9290      9289      9304      9305      9290      9289      9304      9306
      9290      9289      9304      9310      9291      9289      9288      9292
      9291      9289      9288      9296      9291      9289      9288      9300
      9291      9289      9304      9305      9291      9289      9304      9306
      9291      9289      9304      9310      9292      9288      9289      9304
      9292      9288      9296      9297      9292      9288      9296      9298
      9292      9288      9296      9299      9292      9288      9300      9301
      9292      9288      9300      9302      9292      9288      9300      9303
      9293      9292      9288      9296      9293      9292      9288      9300
      9294      9292      9288      9296      9294      9292      9288      9300
      9295      9292      9288      9296      9295      9292      9288      9300
      9296      9288      9289      9304      9296      9288      9300      9301
      9296      9288      9300      9302      9296      9288      9300      9303
      9297      9296      9288      9300      9298      9296      9288      9300
      9299      9296      9288      9300      9300      9288      9289      9304
      9304      9310      9307      9308      9304      9310      9307      9309
      9304      9310      9307      9311      9305      9304      9310      9307
      9306      9304      9310      9307      9307      9311      9312      9313
      9307      9311      9312      9314      9307      9311      9312      9315
      9308      9307      9311      9312      9309      9307      9311      9312
      9310      9307      9311      9312      9311      9312      9315      9316
      9311      9312      9315      9317      9311      9312      9315      9323
      9312      9315      9317      9318      9312      9315      9323      9324
      9312      9315      9323      9325      9312      9315      9323      9326
      9313      9312      9315      9316      9313      9312      9315      9317
      9313      9312      9315      9323      9314      9312      9315      9316
      9314      9312      9315      9317      9314      9312      9315      9323
      9315      9317      9318      9319      9315      9317      9318      9320
      9315      9323      9326      9327      9316      9315      9317      9318
      9316      9315      9323      9324      9316      9315      9323      9325
      9316      9315      9323      9326      9317      9315      9323      9324
      9317      9315      9323      9325      9317      9315      9323      9326
      9317      9318      9320      9321      9317      9318      9320      9322
      9317      9318      9320      9332      9318      9317      9315      9323
      9318      9320      9332      9333      9318      9320      9332      9334
      9318      9320      9332      9335      9319      9318      9320      9321
      9319      9318      9320      9322      9319      9318      9320      9332
      9320      9332      9335      9336      9320      9332      9335      9337
      9320      9332      9335      9338      9321      9320      9332      9333
      9321      9320      9332      9334      9321      9320      9332      9335
      9322      9320      9332      9333      9322      9320      9332      9334
      9322      9320      9332      9335      9323      9326      9327      9328
      9323      9326      9327      9329      9324      9323      9326      9327
      9325      9323      9326      9327      9326      9327      9329      9330
      9326      9327      9329      9331      9326      9327      9329      9379
      9327      9329      9379      9380      9327      9329      9379      9381
      9327      9329      9379      9382      9328      9327      9329      9330
      9328      9327      9329      9331      9328      9327      9329      9379
      9329      9379      9382      9383      9329      9379      9382      9384
      9329      9379      9382      9385      9330      9329      9379      9380
      9330      9329      9379      9381      9330      9329      9379      9382
      9331      9329      9379      9380      9331      9329      9379      9381
      9331      9329      9379      9382      9332      9335      9338      9339
      9332      9335      9338      9340      9332      9335      9338      9341
      9333      9332      9335      9336      9333      9332      9335      9337
      9333      9332      9335      9338      9334      9332      9335      9336
      9334      9332      9335      9337      9334      9332      9335      9338
      9335      9338      9341      9342      9335      9338      9341      9343
      9335      9338      9341      9344      9336      9335      9338      9339
      9336      9335      9338      9340      9336      9335      9338      9341
      9337      9335      9338      9339      9337      9335      9338      9340
      9337      9335      9338      9341      9338      9341      9344      9345
      9338      9341      9344      9346      9338      9341      9344      9347
      9339      9338      9341      9342      9339      9338      9341      9343
      9339      9338      9341      9344      9340      9338      9341      9342
      9340      9338      9341      9343      9340      9338      9341      9344
      9341      9344      9347      9348      9341      9344      9347      9349
      9341      9344      9347      9350      9342      9341      9344      9345
      9342      9341      9344      9346      9342      9341      9344      9347
      9343      9341      9344      9345      9343      9341      9344      9346
      9343      9341      9344      9347      9344      9347      9350      9351
      9344      9347      9350      9352      9345      9344      9347      9348
      9345      9344      9347      9349      9345      9344      9347      9350
      9346      9344      9347      9348      9346      9344      9347      9349
      9346      9344      9347      9350      9347      9350      9352      9353
      9347      9350      9352      9354      9348      9347      9350      9351
      9348      9347      9350      9352      9349      9347      9350      9351
      9349      9347      9350      9352      9350      9352      9354      9355
      9350      9352      9354      9356      9350      9352      9354      9357
      9351      9350      9352      9353      9351      9350      9352      9354
      9352      9354      9357      9358      9352      9354      9357      9359
      9352      9354      9357      9360      9353      9352      9354      9355
      9353      9352      9354      9356      9353      9352      9354      9357
      9354      9357      9360      9361      9354      9357      9360      9362
      9354      9357      9360      9363      9355      9354      9357      9358
      9355      9354      9357      9359      9355      9354      9357      9360
      9356      9354      9357      9358      9356      9354      9357      9359
      9356      9354      9357      9360      9357      9360      9363      9364
      9357      9360      9363      9365      9357      9360      9363      9366
      9358      9357      9360      9361      9358      9357      9360      9362
      9358      9357      9360      9363      9359      9357      9360      9361
      9359      9357      9360      9362      9359      9357      9360      9363
      9360      9363      9366      9367      9360      9363      9366      9368
      9360      9363      9366      9369      9361      9360      9363      9364
      9361      9360      9363      9365      9361      9360      9363      9366
      9362      9360      9363      9364      9362      9360      9363      9365
      9362      9360      9363      9366      9363      9366      9369      9370
      9363      9366      9369      9371      9363      9366      9369      9372
      9364      9363      9366      9367      9364      9363      9366      9368
      9364      9363      9366      9369      9365      9363      9366      9367
      9365      9363      9366      9368      9365      9363      9366      9369
      9366      9369      9372      9373      9366      9369      9372      9374
      9366      9369      9372      9375      9367      9366      9369      9370
      9367      9366      9369      9371      9367      9366      9369      9372
      9368      9366      9369      9370      9368      9366      9369      9371
      9368      9366      9369      9372      9369      9372      9375      9376
      9369      9372      9375      9377      9369      9372      9375      9378
      9370      9369      9372      9373      9370      9369      9372      9374
      9370      9369      9372      9375      9371      9369      9372      9373
      9371      9369      9372      9374      9371      9369      9372      9375
      9373      9372      9375      9376      9373      9372      9375      9377
      9373      9372      9375      9378      9374      9372      9375      9376
      9374      9372      9375      9377      9374      9372      9375      9378
      9379      9382      9385      9386      9379      9382      9385      9387
      9379      9382      9385      9388      9380      9379      9382      9383
      9380      9379      9382      9384      9380      9379      9382      9385
      9381      9379      9382      9383      9381      9379      9382      9384
      9381      9379      9382      9385      9382      9385      9388      9389
      9382      9385      9388      9390      9382      9385      9388      9391
      9383      9382      9385      9386      9383      9382      9385      9387
      9383      9382      9385      9388      9384      9382      9385      9386
      9384      9382      9385      9387      9384      9382      9385      9388
      9385      9388      9391      9392      9385      9388      9391      9393
      9385      9388      9391      9394      9386      9385      9388      9389
      9386      9385      9388      9390      9386      9385      9388      9391
      9387      9385      9388      9389      9387      9385      9388      9390
      9387      9385      9388      9391      9388      9391      9394      9395
      9388      9391      9394      9396      9388      9391      9394      9397
      9389      9388      9391      9392      9389      9388      9391      9393
      9389      9388      9391      9394      9390      9388      9391      9392
      9390      9388      9391      9393      9390      9388      9391      9394
      9391      9394      9397      9398      9391      9394      9397      9399
      9392      9391      9394      9395      9392      9391      9394      9396
      9392      9391      9394      9397      9393      9391      9394      9395
      9393      9391      9394      9396      9393      9391      9394      9397
      9394      9397      9399      9400      9394      9397      9399      9401
      9395      9394      9397      9398      9395      9394      9397      9399
      9396      9394      9397      9398      9396      9394      9397      9399
      9397      9399      9401      9402      9397      9399      9401      9403
      9397      9399      9401      9404      9398      9397      9399      9400
      9398      9397      9399      9401      9399      9401      9404      9405
      9399      9401      9404      9406      9399      9401      9404      9407
      9400      9399      9401      9402      9400      9399      9401      9403
      9400      9399      9401      9404      9401      9404      9407      9408
      9401      9404      9407      9409      9401      9404      9407      9410
      9402      9401      9404      9405      9402      9401      9404      9406
      9402      9401      9404      9407      9403      9401      9404      9405
      9403      9401      9404      9406      9403      9401      9404      9407
      9404      9407      9410      9411      9404      9407      9410      9412
      9404      9407      9410      9413      9405      9404      9407      9408
      9405      9404      9407      9409      9405      9404      9407      9410
      9406      9404      9407      9408      9406      9404      9407      9409
      9406      9404      9407      9410      9407      9410      9413      9414
      9407      9410      9413      9415      9407      9410      9413      9416
      9408      9407      9410      9411      9408      9407      9410      9412
      9408      9407      9410      9413      9409      9407      9410      9411
      9409      9407      9410      9412      9409      9407      9410      9413
      9410      9413      9416      9417      9410      9413      9416      9418
      9410      9413      9416      9419      9411      9410      9413      9414
      9411      9410      9413      9415      9411      9410      9413      9416
      9412      9410      9413      9414      9412      9410      9413      9415
      9412      9410      9413      9416      9413      9416      9419      9420
      9413      9416      9419      9421      9413      9416      9419      9422
      9414      9413      9416      9417      9414      9413      9416      9418
      9414      9413      9416      9419      9415      9413      9416      9417
      9415      9413      9416      9418      9415      9413      9416      9419
      9416      9419      9422      9423      9416      9419      9422      9424
      9416      9419      9422      9425      9417      9416      9419      9420
      9417      9416      9419      9421      9417      9416      9419      9422
      9418      9416      9419      9420      9418      9416      9419      9421
      9418      9416      9419      9422      9420      9419      9422      9423
      9420      9419      9422      9424      9420      9419      9422      9425
      9421      9419      9422      9423      9421      9419      9422      9424
      9421      9419      9422      9425      9426      9427      9442      9443
      9426      9427      9442      9444      9426      9427      9442      9448
      9427      9426      9430      9431      9427      9426      9430      9432
      9427      9426      9430      9433      9427      9426      9434      9435
      9427      9426      9434      9436      9427      9426      9434      9437
      9427      9426      9438      9439      9427      9426      9438      9440
      9427      9426      9438      9441      9427      9442      9448      9445
      9428      9427      9426      9430      9428      9427      9426      9434
      9428      9427      9426      9438      9428      9427      9442      9443
      9428      9427      9442      9444      9428      9427      9442      9448
      9429      9427      9426      9430      9429      9427      9426      9434
      9429      9427      9426      9438      9429      9427      9442      9443
      9429      9427      9442      9444      9429      9427      9442      9448
      9430      9426      9427      9442      9430      9426      9434      9435
      9430      9426      9434      9436      9430      9426      9434      9437
      9430      9426      9438      9439      9430      9426      9438      9440
      9430      9426      9438      9441      9431      9430      9426      9434
      9431      9430      9426      9438      9432      9430      9426      9434
      9432      9430      9426      9438      9433      9430      9426      9434
      9433      9430      9426      9438      9434      9426      9427      9442
      9434      9426      9438      9439      9434      9426      9438      9440
      9434      9426      9438      9441      9435      9434      9426      9438
      9436      9434      9426      9438      9437      9434      9426      9438
      9438      9426      9427      9442      9442      9448      9445      9446
      9442      9448      9445      9447      9442      9448      9445      9449
      9443      9442      9448      9445      9444      9442      9448      9445
      9445      9449      9450      9451      9445      9449      9450      9452
      9445      9449      9450      9453      9446      9445      9449      9450
      9447      9445      9449      9450      9448      9445      9449      9450
      9449      9450      9453      9454      9449      9450      9453      9455
      9449      9450      9453      9461      9450      9453      9455      9456
      9450      9453      9461      9462      9450      9453      9461      9463
      9450      9453      9461      9464      9451      9450      9453      9454
      9451      9450      9453      9455      9451      9450      9453      9461
      9452      9450      9453      9454      9452      9450      9453      9455
      9452      9450      9453      9461      9453      9455      9456      9457
      9453      9455      9456      9458      9453      9461      9464      9465
      9454      9453      9455      9456      9454      9453      9461      9462
      9454      9453      9461      9463      9454      9453      9461      9464
      9455      9453      9461      9462      9455      9453      9461      9463
      9455      9453      9461      9464      9455      9456      9458      9459
      9455      9456      9458      9460      9455      9456      9458      9470
      9456      9455      9453      9461      9456      9458      9470      9471
      9456      9458      9470      9472      9456      9458      9470      9473
      9457      9456      9458      9459      9457      9456      9458      9460
      9457      9456      9458      9470      9458      9470      9473      9474
      9458      9470      9473      9475      9458      9470      9473      9476
      9459      9458      9470      9471      9459      9458      9470      9472
      9459      9458      9470      9473      9460      9458      9470      9471
      9460      9458      9470      9472      9460      9458      9470      9473
      9461      9464      9465      9466      9461      9464      9465      9467
      9462      9461      9464      9465      9463      9461      9464      9465
      9464      9465      9467      9468      9464      9465      9467      9469
      9464      9465      9467      9517      9465      9467      9517      9518
      9465      9467      9517      9519      9465      9467      9517      9520
      9466      9465      9467      9468      9466      9465      9467      9469
      9466      9465      9467      9517      9467      9517      9520      9521
      9467      9517      9520      9522      9467      9517      9520      9523
      9468      9467      9517      9518      9468      9467      9517      9519
      9468      9467      9517      9520      9469      9467      9517      9518
      9469      9467      9517      9519      9469      9467      9517      9520
      9470      9473      9476      9477      9470      9473      9476      9478
      9470      9473      9476      9479      9471      9470      9473      9474
      9471      9470      9473      9475      9471      9470      9473      9476
      9472      9470      9473      9474      9472      9470      9473      9475
      9472      9470      9473      9476      9473      9476      9479      9480
      9473      9476      9479      9481      9473      9476      9479      9482
      9474      9473      9476      9477      9474      9473      9476      9478
      9474      9473      9476      9479      9475      9473      9476      9477
      9475      9473      9476      9478      9475      9473      9476      9479
      9476      9479      9482      9483      9476      9479      9482      9484
      9476      9479      9482      9485      9477      9476      9479      9480
      9477      9476      9479      9481      9477      9476      9479      9482
      9478      9476      9479      9480      9478      9476      9479      9481
      9478      9476      9479      9482      9479      9482      9485      9486
      9479      9482      9485      9487      9479      9482      9485      9488
      9480      9479      9482      9483      9480      9479      9482      9484
      9480      9479      9482      9485      9481      9479      9482      9483
      9481      9479      9482      9484      9481      9479      9482      9485
      9482      9485      9488      9489      9482      9485      9488      9490
      9483      9482      9485      9486      9483      9482      9485      9487
      9483      9482      9485      9488      9484      9482      9485      9486
      9484      9482      9485      9487      9484      9482      9485      9488
      9485      9488      9490      9491      9485      9488      9490      9492
      9486      9485      9488      9489      9486      9485      9488      9490
      9487      9485      9488      9489      9487      9485      9488      9490
      9488      9490      9492      9493      9488      9490      9492      9494
      9488      9490      9492      9495      9489      9488      9490      9491
      9489      9488      9490      9492      9490      9492      9495      9496
      9490      9492      9495      9497      9490      9492      9495      9498
      9491      9490      9492      9493      9491      9490      9492      9494
      9491      9490      9492      9495      9492      9495      9498      9499
      9492      9495      9498      9500      9492      9495      9498      9501
      9493      9492      9495      9496      9493      9492      9495      9497
      9493      9492      9495      9498      9494      9492      9495      9496
      9494      9492      9495      9497      9494      9492      9495      9498
      9495      9498      9501      9502      9495      9498      9501      9503
      9495      9498      9501      9504      9496      9495      9498      9499
      9496      9495      9498      9500      9496      9495      9498      9501
      9497      9495      9498      9499      9497      9495      9498      9500
      9497      9495      9498      9501      9498      9501      9504      9505
      9498      9501      9504      9506      9498      9501      9504      9507
      9499      9498      9501      9502      9499      9498      9501      9503
      9499      9498      9501      9504      9500      9498      9501      9502
      9500      9498      9501      9503      9500      9498      9501      9504
      9501      9504      9507      9508      9501      9504      9507      9509
      9501      9504      9507      9510      9502      9501      9504      9505
      9502      9501      9504      9506      9502      9501      9504      9507
      9503      9501      9504      9505      9503      9501      9504      9506
      9503      9501      9504      9507      9504      9507      9510      9511
      9504      9507      9510      9512      9504      9507      9510      9513
      9505      9504      9507      9508      9505      9504      9507      9509
      9505      9504      9507      9510      9506      9504      9507      9508
      9506      9504      9507      9509      9506      9504      9507      9510
      9507      9510      9513      9514      9507      9510      9513      9515
      9507      9510      9513      9516      9508      9507      9510      9511
      9508      9507      9510      9512      9508      9507      9510      9513
      9509      9507      9510      9511      9509      9507      9510      9512
      9509      9507      9510      9513      9511      9510      9513      9514
      9511      9510      9513      9515      9511      9510      9513      9516
      9512      9510      9513      9514      9512      9510      9513      9515
      9512      9510      9513      9516      9517      9520      9523      9524
      9517      9520      9523      9525      9517      9520      9523      9526
      9518      9517      9520      9521      9518      9517      9520      9522
      9518      9517      9520      9523      9519      9517      9520      9521
      9519      9517      9520      9522      9519      9517      9520      9523
      9520      9523      9526      9527      9520      9523      9526      9528
      9520      9523      9526      9529      9521      9520      9523      9524
      9521      9520      9523      9525      9521      9520      9523      9526
      9522      9520      9523      9524      9522      9520      9523      9525
      9522      9520      9523      9526      9523      9526      9529      9530
      9523      9526      9529      9531      9523      9526      9529      9532
      9524      9523      9526      9527      9524      9523      9526      9528
      9524      9523      9526      9529      9525      9523      9526      9527
      9525      9523      9526      9528      9525      9523      9526      9529
      9526      9529      9532      9533      9526      9529      9532      9534
      9526      9529      9532      9535      9527      9526      9529      9530
      9527      9526      9529      9531      9527      9526      9529      9532
      9528      9526      9529      9530      9528      9526      9529      9531
      9528      9526      9529      9532      9529      9532      9535      9536
      9529      9532      9535      9537      9530      9529      9532      9533
      9530      9529      9532      9534      9530      9529      9532      9535
      9531      9529      9532      9533      9531      9529      9532      9534
      9531      9529      9532      9535      9532      9535      9537      9538
      9532      9535      9537      9539      9533      9532      9535      9536
      9533      9532      9535      9537      9534      9532      9535      9536
      9534      9532      9535      9537      9535      9537      9539      9540
      9535      9537      9539      9541      9535      9537      9539      9542
      9536      9535      9537      9538      9536      9535      9537      9539
      9537      9539      9542      9543      9537      9539      9542      9544
      9537      9539      9542      9545      9538      9537      9539      9540
      9538      9537      9539      9541      9538      9537      9539      9542
      9539      9542      9545      9546      9539      9542      9545      9547
      9539      9542      9545      9548      9540      9539      9542      9543
      9540      9539      9542      9544      9540      9539      9542      9545
      9541      9539      9542      9543      9541      9539      9542      9544
      9541      9539      9542      9545      9542      9545      9548      9549
      9542      9545      9548      9550      9542      9545      9548      9551
      9543      9542      9545      9546      9543      9542      9545      9547
      9543      9542      9545      9548      9544      9542      9545      9546
      9544      9542      9545      9547      9544      9542      9545      9548
      9545      9548      9551      9552      9545      9548      9551      9553
      9545      9548      9551      9554      9546      9545      9548      9549
      9546      9545      9548      9550      9546      9545      9548      9551
      9547      9545      9548      9549      9547      9545      9548      9550
      9547      9545      9548      9551      9548      9551      9554      9555
      9548      9551      9554      9556      9548      9551      9554      9557
      9549      9548      9551      9552      9549      9548      9551      9553
      9549      9548      9551      9554      9550      9548      9551      9552
      9550      9548      9551      9553      9550      9548      9551      9554
      9551      9554      9557      9558      9551      9554      9557      9559
      9551      9554      9557      9560      9552      9551      9554      9555
      9552      9551      9554      9556      9552      9551      9554      9557
      9553      9551      9554      9555      9553      9551      9554      9556
      9553      9551      9554      9557      9554      9557      9560      9561
      9554      9557      9560      9562      9554      9557      9560      9563
      9555      9554      9557      9558      9555      9554      9557      9559
      9555      9554      9557      9560      9556      9554      9557      9558
      9556      9554      9557      9559      9556      9554      9557      9560
      9558      9557      9560      9561      9558      9557      9560      9562
      9558      9557      9560      9563      9559      9557      9560      9561
      9559      9557      9560      9562      9559      9557      9560      9563
      9564      9568      9571      9572      9564      9568      9571      9573
      9564      9568      9571      9578      9565      9564      9568      9569
      9565      9564      9568      9570      9565      9564      9568      9571
      9566      9564      9568      9569      9566      9564      9568      9570
      9566      9564      9568      9571      9567      9564      9568      9569
      9567      9564      9568      9570      9567      9564      9568      9571
      9568      9571      9578      9574      9569      9568      9571      9572
      9569      9568      9571      9573      9569      9568      9571      9578
      9570      9568      9571      9572      9570      9568      9571      9573
      9570      9568      9571      9578      9571      9578      9574      9575
      9571      9578      9574      9576      9571      9578      9574      9577
      9572      9571      9578      9574      9573      9571      9578      9574
      9574      9577      9579      9580      9574      9577      9579      9581
      9574      9577      9579      9582      9575      9574      9577      9579
      9576      9574      9577      9579      9577      9579      9582      9583
      9577      9579      9582      9584      9577      9579      9582      9590
      9578      9574      9577      9579      9579      9582      9584      9585
      9579      9582      9590      9591      9579      9582      9590      9592
      9579      9582      9590      9593      9580      9579      9582      9583
      9580      9579      9582      9584      9580      9579      9582      9590
      9581      9579      9582      9583      9581      9579      9582      9584
      9581      9579      9582      9590      9582      9584      9585      9586
      9582      9584      9585      9587      9582      9590      9593      9594
      9583      9582      9584      9585      9583      9582      9590      9591
      9583      9582      9590      9592      9583      9582      9590      9593
      9584      9582      9590      9591      9584      9582      9590      9592
      9584      9582      9590      9593      9584      9585      9587      9588
      9584      9585      9587      9589      9584      9585      9587      9599
      9585      9584      9582      9590      9585      9587      9599      9600
      9585      9587      9599      9601      9585      9587      9599      9602
      9586      9585      9587      9588      9586      9585      9587      9589
      9586      9585      9587      9599      9587      9599      9602      9603
      9587      9599      9602      9604      9587      9599      9602      9605
      9588      9587      9599      9600      9588      9587      9599      9601
      9588      9587      9599      9602      9589      9587      9599      9600
      9589      9587      9599      9601      9589      9587      9599      9602
      9590      9593      9594      9595      9590      9593      9594      9596
      9591      9590      9593      9594      9592      9590      9593      9594
      9593      9594      9596      9597      9593      9594      9596      9598
      9593      9594      9596      9646      9594      9596      9646      9647
      9594      9596      9646      9648      9594      9596      9646      9649
      9595      9594      9596      9597      9595      9594      9596      9598
      9595      9594      9596      9646      9596      9646      9649      9650
      9596      9646      9649      9651      9596      9646      9649      9652
      9597      9596      9646      9647      9597      9596      9646      9648
      9597      9596      9646      9649      9598      9596      9646      9647
      9598      9596      9646      9648      9598      9596      9646      9649
      9599      9602      9605      9606      9599      9602      9605      9607
      9599      9602      9605      9608      9600      9599      9602      9603
      9600      9599      9602      9604      9600      9599      9602      9605
      9601      9599      9602      9603      9601      9599      9602      9604
      9601      9599      9602      9605      9602      9605      9608      9609
      9602      9605      9608      9610      9602      9605      9608      9611
      9603      9602      9605      9606      9603      9602      9605      9607
      9603      9602      9605      9608      9604      9602      9605      9606
      9604      9602      9605      9607      9604      9602      9605      9608
      9605      9608      9611      9612      9605      9608      9611      9613
      9605      9608      9611      9614      9606      9605      9608      9609
      9606      9605      9608      9610      9606      9605      9608      9611
      9607      9605      9608      9609      9607      9605      9608      9610
      9607      9605      9608      9611      9608      9611      9614      9615
      9608      9611      9614      9616      9608      9611      9614      9617
      9609      9608      9611      9612      9609      9608      9611      9613
      9609      9608      9611      9614      9610      9608      9611      9612
      9610      9608      9611      9613      9610      9608      9611      9614
      9611      9614      9617      9618      9611      9614      9617      9619
      9612      9611      9614      9615      9612      9611      9614      9616
      9612      9611      9614      9617      9613      9611      9614      9615
      9613      9611      9614      9616      9613      9611      9614      9617
      9614      9617      9619      9620      9614      9617      9619      9621
      9615      9614      9617      9618      9615      9614      9617      9619
      9616      9614      9617      9618      9616      9614      9617      9619
      9617      9619      9621      9622      9617      9619      9621      9623
      9617      9619      9621      9624      9618      9617      9619      9620
      9618      9617      9619      9621      9619      9621      9624      9625
      9619      9621      9624      9626      9619      9621      9624      9627
      9620      9619      9621      9622      9620      9619      9621      9623
      9620      9619      9621      9624      9621      9624      9627      9628
      9621      9624      9627      9629      9621      9624      9627      9630
      9622      9621      9624      9625      9622      9621      9624      9626
      9622      9621      9624      9627      9623      9621      9624      9625
      9623      9621      9624      9626      9623      9621      9624      9627
      9624      9627      9630      9631      9624      9627      9630      9632
      9624      9627      9630      9633      9625      9624      9627      9628
      9625      9624      9627      9629      9625      9624      9627      9630
      9626      9624      9627      9628      9626      9624      9627      9629
      9626      9624      9627      9630      9627      9630      9633      9634
      9627      9630      9633      9635      9627      9630      9633      9636
      9628      9627      9630      9631      9628      9627      9630      9632
      9628      9627      9630      9633      9629      9627      9630      9631
      9629      9627      9630      9632      9629      9627      9630      9633
      9630      9633      9636      9637      9630      9633      9636      9638
      9630      9633      9636      9639      9631      9630      9633      9634
      9631      9630      9633      9635      9631      9630      9633      9636
      9632      9630      9633      9634      9632      9630      9633      9635
      9632      9630      9633      9636      9633      9636      9639      9640
      9633      9636      9639      9641      9633      9636      9639      9642
      9634      9633      9636      9637      9634      9633      9636      9638
      9634      9633      9636      9639      9635      9633      9636      9637
      9635      9633      9636      9638      9635      9633      9636      9639
      9636      9639      9642      9643      9636      9639      9642      9644
      9636      9639      9642      9645      9637      9636      9639      9640
      9637      9636      9639      9641      9637      9636      9639      9642
      9638      9636      9639      9640      9638      9636      9639      9641
      9638      9636      9639      9642      9640      9639      9642      9643
      9640      9639      9642      9644      9640      9639      9642      9645
      9641      9639      9642      9643      9641      9639      9642      9644
      9641      9639      9642      9645      9646      9649      9652      9653
      9646      9649      9652      9654      9646      9649      9652      9655
      9647      9646      9649      9650      9647      9646      9649      9651
      9647      9646      9649      9652      9648      9646      9649      9650
      9648      9646      9649      9651      9648      9646      9649      9652
      9649      9652      9655      9656      9649      9652      9655      9657
      9649      9652      9655      9658      9650      9649      9652      9653
      9650      9649      9652      9654      9650      9649      9652      9655
      9651      9649      9652      9653      9651      9649      9652      9654
      9651      9649      9652      9655      9652      9655      9658      9659
      9652      9655      9658      9660      9652      9655      9658      9661
      9653      9652      9655      9656      9653      9652      9655      9657
      9653      9652      9655      9658      9654      9652      9655      9656
      9654      9652      9655      9657      9654      9652      9655      9658
      9655      9658      9661      9662      9655      9658      9661      9663
      9655      9658      9661      9664      9656      9655      9658      9659
      9656      9655      9658      9660      9656      9655      9658      9661
      9657      9655      9658      9659      9657      9655      9658      9660
      9657      9655      9658      9661      9658      9661      9664      9665
      9658      9661      9664      9666      9659      9658      9661      9662
      9659      9658      9661      9663      9659      9658      9661      9664
      9660      9658      9661      9662      9660      9658      9661      9663
      9660      9658      9661      9664      9661      9664      9666      9667
      9661      9664      9666      9668      9662      9661      9664      9665
      9662      9661      9664      9666      9663      9661      9664      9665
      9663      9661      9664      9666      9664      9666      9668      9669
      9664      9666      9668      9670      9664      9666      9668      9671
      9665      9664      9666      9667      9665      9664      9666      9668
      9666      9668      9671      9672      9666      9668      9671      9673
      9666      9668      9671      9674      9667      9666      9668      9669
      9667      9666      9668      9670      9667      9666      9668      9671
      9668      9671      9674      9675      9668      9671      9674      9676
      9668      9671      9674      9677      9669      9668      9671      9672
      9669      9668      9671      9673      9669      9668      9671      9674
      9670      9668      9671      9672      9670      9668      9671      9673
      9670      9668      9671      9674      9671      9674      9677      9678
      9671      9674      9677      9679      9671      9674      9677      9680
      9672      9671      9674      9675      9672      9671      9674      9676
      9672      9671      9674      9677      9673      9671      9674      9675
      9673      9671      9674      9676      9673      9671      9674      9677
      9674      9677      9680      9681      9674      9677      9680      9682
      9674      9677      9680      9683      9675      9674      9677      9678
      9675      9674      9677      9679      9675      9674      9677      9680
      9676      9674      9677      9678      9676      9674      9677      9679
      9676      9674      9677      9680      9677      9680      9683      9684
      9677      9680      9683      9685      9677      9680      9683      9686
      9678      9677      9680      9681      9678      9677      9680      9682
      9678      9677      9680      9683      9679      9677      9680      9681
      9679      9677      9680      9682      9679      9677      9680      9683
      9680      9683      9686      9687      9680      9683      9686      9688
      9680      9683      9686      9689      9681      9680      9683      9684
      9681      9680      9683      9685      9681      9680      9683      9686
      9682      9680      9683      9684      9682      9680      9683      9685
      9682      9680      9683      9686      9683      9686      9689      9690
      9683      9686      9689      9691      9683      9686      9689      9692
      9684      9683      9686      9687      9684      9683      9686      9688
      9684      9683      9686      9689      9685      9683      9686      9687
      9685      9683      9686      9688      9685      9683      9686      9689
      9687      9686      9689      9690      9687      9686      9689      9691
      9687      9686      9689      9692      9688      9686      9689      9690
      9688      9686      9689      9691      9688      9686      9689      9692
      9693      9697      9700      9701      9693      9697      9700      9702
      9693      9697      9700      9707      9694      9693      9697      9698
      9694      9693      9697      9699      9694      9693      9697      9700
      9695      9693      9697      9698      9695      9693      9697      9699
      9695      9693      9697      9700      9696      9693      9697      9698
      9696      9693      9697      9699      9696      9693      9697      9700
      9697      9700      9707      9703      9698      9697      9700      9701
      9698      9697      9700      9702      9698      9697      9700      9707
      9699      9697      9700      9701      9699      9697      9700      9702
      9699      9697      9700      9707      9700      9707      9703      9704
      9700      9707      9703      9705      9700      9707      9703      9706
      9701      9700      9707      9703      9702      9700      9707      9703
      9703      9706      9708      9709      9703      9706      9708      9710
      9703      9706      9708      9711      9704      9703      9706      9708
      9705      9703      9706      9708      9706      9708      9711      9712
      9706      9708      9711      9713      9706      9708      9711      9719
      9707      9703      9706      9708      9708      9711      9713      9714
      9708      9711      9719      9720      9708      9711      9719      9721
      9708      9711      9719      9722      9709      9708      9711      9712
      9709      9708      9711      9713      9709      9708      9711      9719
      9710      9708      9711      9712      9710      9708      9711      9713
      9710      9708      9711      9719      9711      9713      9714      9715
      9711      9713      9714      9716      9711      9719      9722      9723
      9712      9711      9713      9714      9712      9711      9719      9720
      9712      9711      9719      9721      9712      9711      9719      9722
      9713      9711      9719      9720      9713      9711      9719      9721
      9713      9711      9719      9722      9713      9714      9716      9717
      9713      9714      9716      9718      9713      9714      9716      9728
      9714      9713      9711      9719      9714      9716      9728      9729
      9714      9716      9728      9730      9714      9716      9728      9731
      9715      9714      9716      9717      9715      9714      9716      9718
      9715      9714      9716      9728      9716      9728      9731      9732
      9716      9728      9731      9733      9716      9728      9731      9734
      9717      9716      9728      9729      9717      9716      9728      9730
      9717      9716      9728      9731      9718      9716      9728      9729
      9718      9716      9728      9730      9718      9716      9728      9731
      9719      9722      9723      9724      9719      9722      9723      9725
      9720      9719      9722      9723      9721      9719      9722      9723
      9722      9723      9725      9726      9722      9723      9725      9727
      9722      9723      9725      9775      9723      9725      9775      9776
      9723      9725      9775      9777      9723      9725      9775      9778
      9724      9723      9725      9726      9724      9723      9725      9727
      9724      9723      9725      9775      9725      9775      9778      9779
      9725      9775      9778      9780      9725      9775      9778      9781
      9726      9725      9775      9776      9726      9725      9775      9777
      9726      9725      9775      9778      9727      9725      9775      9776
      9727      9725      9775      9777      9727      9725      9775      9778
      9728      9731      9734      9735      9728      9731      9734      9736
      9728      9731      9734      9737      9729      9728      9731      9732
      9729      9728      9731      9733      9729      9728      9731      9734
      9730      9728      9731      9732      9730      9728      9731      9733
      9730      9728      9731      9734      9731      9734      9737      9738
      9731      9734      9737      9739      9731      9734      9737      9740
      9732      9731      9734      9735      9732      9731      9734      9736
      9732      9731      9734      9737      9733      9731      9734      9735
      9733      9731      9734      9736      9733      9731      9734      9737
      9734      9737      9740      9741      9734      9737      9740      9742
      9734      9737      9740      9743      9735      9734      9737      9738
      9735      9734      9737      9739      9735      9734      9737      9740
      9736      9734      9737      9738      9736      9734      9737      9739
      9736      9734      9737      9740      9737      9740      9743      9744
      9737      9740      9743      9745      9737      9740      9743      9746
      9738      9737      9740      9741      9738      9737      9740      9742
      9738      9737      9740      9743      9739      9737      9740      9741
      9739      9737      9740      9742      9739      9737      9740      9743
      9740      9743      9746      9747      9740      9743      9746      9748
      9741      9740      9743      9744      9741      9740      9743      9745
      9741      9740      9743      9746      9742      9740      9743      9744
      9742      9740      9743      9745      9742      9740      9743      9746
      9743      9746      9748      9749      9743      9746      9748      9750
      9744      9743      9746      9747      9744      9743      9746      9748
      9745      9743      9746      9747      9745      9743      9746      9748
      9746      9748      9750      9751      9746      9748      9750      9752
      9746      9748      9750      9753      9747      9746      9748      9749
      9747      9746      9748      9750      9748      9750      9753      9754
      9748      9750      9753      9755      9748      9750      9753      9756
      9749      9748      9750      9751      9749      9748      9750      9752
      9749      9748      9750      9753      9750      9753      9756      9757
      9750      9753      9756      9758      9750      9753      9756      9759
      9751      9750      9753      9754      9751      9750      9753      9755
      9751      9750      9753      9756      9752      9750      9753      9754
      9752      9750      9753      9755      9752      9750      9753      9756
      9753      9756      9759      9760      9753      9756      9759      9761
      9753      9756      9759      9762      9754      9753      9756      9757
      9754      9753      9756      9758      9754      9753      9756      9759
      9755      9753      9756      9757      9755      9753      9756      9758
      9755      9753      9756      9759      9756      9759      9762      9763
      9756      9759      9762      9764      9756      9759      9762      9765
      9757      9756      9759      9760      9757      9756      9759      9761
      9757      9756      9759      9762      9758      9756      9759      9760
      9758      9756      9759      9761      9758      9756      9759      9762
      9759      9762      9765      9766      9759      9762      9765      9767
      9759      9762      9765      9768      9760      9759      9762      9763
      9760      9759      9762      9764      9760      9759      9762      9765
      9761      9759      9762      9763      9761      9759      9762      9764
      9761      9759      9762      9765      9762      9765      9768      9769
      9762      9765      9768      9770      9762      9765      9768      9771
      9763      9762      9765      9766      9763      9762      9765      9767
      9763      9762      9765      9768      9764      9762      9765      9766
      9764      9762      9765      9767      9764      9762      9765      9768
      9765      9768      9771      9772      9765      9768      9771      9773
      9765      9768      9771      9774      9766      9765      9768      9769
      9766      9765      9768      9770      9766      9765      9768      9771
      9767      9765      9768      9769      9767      9765      9768      9770
      9767      9765      9768      9771      9769      9768      9771      9772
      9769      9768      9771      9773      9769      9768      9771      9774
      9770      9768      9771      9772      9770      9768      9771      9773
      9770      9768      9771      9774      9775      9778      9781      9782
      9775      9778      9781      9783      9775      9778      9781      9784
      9776      9775      9778      9779      9776      9775      9778      9780
      9776      9775      9778      9781      9777      9775      9778      9779
      9777      9775      9778      9780      9777      9775      9778      9781
      9778      9781      9784      9785      9778      9781      9784      9786
      9778      9781      9784      9787      9779      9778      9781      9782
      9779      9778      9781      9783      9779      9778      9781      9784
      9780      9778      9781      9782      9780      9778      9781      9783
      9780      9778      9781      9784      9781      9784      9787      9788
      9781      9784      9787      9789      9781      9784      9787      9790
      9782      9781      9784      9785      9782      9781      9784      9786
      9782      9781      9784      9787      9783      9781      9784      9785
      9783      9781      9784      9786      9783      9781      9784      9787
      9784      9787      9790      9791      9784      9787      9790      9792
      9784      9787      9790      9793      9785      9784      9787      9788
      9785      9784      9787      9789      9785      9784      9787      9790
      9786      9784      9787      9788      9786      9784      9787      9789
      9786      9784      9787      9790      9787      9790      9793      9794
      9787      9790      9793      9795      9788      9787      9790      9791
      9788      9787      9790      9792      9788      9787      9790      9793
      9789      9787      9790      9791      9789      9787      9790      9792
      9789      9787      9790      9793      9790      9793      9795      9796
      9790      9793      9795      9797      9791      9790      9793      9794
      9791      9790      9793      9795      9792      9790      9793      9794
      9792      9790      9793      9795      9793      9795      9797      9798
      9793      9795      9797      9799      9793      9795      9797      9800
      9794      9793      9795      9796      9794      9793      9795      9797
      9795      9797      9800      9801      9795      9797      9800      9802
      9795      9797      9800      9803      9796      9795      9797      9798
      9796      9795      9797      9799      9796      9795      9797      9800
      9797      9800      9803      9804      9797      9800      9803      9805
      9797      9800      9803      9806      9798      9797      9800      9801
      9798      9797      9800      9802      9798      9797      9800      9803
      9799      9797      9800      9801      9799      9797      9800      9802
      9799      9797      9800      9803      9800      9803      9806      9807
      9800      9803      9806      9808      9800      9803      9806      9809
      9801      9800      9803      9804      9801      9800      9803      9805
      9801      9800      9803      9806      9802      9800      9803      9804
      9802      9800      9803      9805      9802      9800      9803      9806
      9803      9806      9809      9810      9803      9806      9809      9811
      9803      9806      9809      9812      9804      9803      9806      9807
      9804      9803      9806      9808      9804      9803      9806      9809
      9805      9803      9806      9807      9805      9803      9806      9808
      9805      9803      9806      9809      9806      9809      9812      9813
      9806      9809      9812      9814      9806      9809      9812      9815
      9807      9806      9809      9810      9807      9806      9809      9811
      9807      9806      9809      9812      9808      9806      9809      9810
      9808      9806      9809      9811      9808      9806      9809      9812
      9809      9812      9815      9816      9809      9812      9815      9817
      9809      9812      9815      9818      9810      9809      9812      9813
      9810      9809      9812      9814      9810      9809      9812      9815
      9811      9809      9812      9813      9811      9809      9812      9814
      9811      9809      9812      9815      9812      9815      9818      9819
      9812      9815      9818      9820      9812      9815      9818      9821
      9813      9812      9815      9816      9813      9812      9815      9817
      9813      9812      9815      9818      9814      9812      9815      9816
      9814      9812      9815      9817      9814      9812      9815      9818
      9816      9815      9818      9819      9816      9815      9818      9820
      9816      9815      9818      9821      9817      9815      9818      9819
      9817      9815      9818      9820      9817      9815      9818      9821
      9822      9835      9838      9839      9822      9835      9838      9840
      9822      9835      9838      9845      9823      9822      9827      9828
      9823      9822      9827      9829      9823      9822      9827      9830
      9823      9822      9831      9832      9823      9822      9831      9833
      9823      9822      9831      9834      9823      9822      9835      9836
      9823      9822      9835      9837      9823      9822      9835      9838
      9824      9823      9822      9827      9824      9823      9822      9831
      9824      9823      9822      9835      9825      9823      9822      9827
      9825      9823      9822      9831      9825      9823      9822      9835
      9826      9823      9822      9827      9826      9823      9822      9831
      9826      9823      9822      9835      9827      9822      9831      9832
      9827      9822      9831      9833      9827      9822      9831      9834
      9827      9822      9835      9836      9827      9822      9835      9837
      9827      9822      9835      9838      9828      9827      9822      9831
      9828      9827      9822      9835      9829      9827      9822      9831
      9829      9827      9822      9835      9830      9827      9822      9831
      9830      9827      9822      9835      9831      9822      9835      9836
      9831      9822      9835      9837      9831      9822      9835      9838
      9832      9831      9822      9835      9833      9831      9822      9835
      9834      9831      9822      9835      9835      9838      9845      9841
      9836      9835      9838      9839      9836      9835      9838      9840
      9836      9835      9838      9845      9837      9835      9838      9839
      9837      9835      9838      9840      9837      9835      9838      9845
      9838      9845      9841      9842      9838      9845      9841      9843
      9838      9845      9841      9844      9839      9838      9845      9841
      9840      9838      9845      9841      9841      9844      9846      9847
      9841      9844      9846      9848      9841      9844      9846      9851
      9842      9841      9844      9846      9843      9841      9844      9846
      9844      9846      9851      9849      9844      9846      9851      9852
      9844      9846      9851      9853      9845      9841      9844      9846
      9846      9851      9849      9850      9846      9851      9849      9901
      9846      9851      9853      9854      9846      9851      9853      9855
      9846      9851      9853      9857      9847      9846      9851      9849
      9847      9846      9851      9852      9847      9846      9851      9853
      9848      9846      9851      9849      9848      9846      9851      9852
      9848      9846      9851      9853      9849      9851      9853      9854
      9849      9851      9853      9855      9849      9851      9853      9857
      9849      9901      9903      9904      9849      9901      9903      9905
      9849      9901      9903      9906      9850      9849      9851      9852
      9850      9849      9851      9853      9850      9849      9901      9902
      9850      9849      9901      9903      9851      9849      9901      9902
      9851      9849      9901      9903      9851      9853      9855      9856
      9851      9853      9857      9858      9851      9853      9857      9859
      9852      9851      9849      9901      9852      9851      9853      9854
      9852      9851      9853      9855      9852      9851      9853      9857
      9853      9851      9849      9901      9853      9857      9859      9860
      9853      9857      9859      9861      9854      9853      9855      9856
      9854      9853      9857      9858      9854      9853      9857      9859
      9855      9853      9857      9858      9855      9853      9857      9859
      9856      9855      9853      9857      9857      9859      9861      9862
      9857      9859      9861      9863      9857      9859      9861      9864
      9858      9857      9859      9860      9858      9857      9859      9861
      9859      9861      9864      9865      9859      9861      9864      9866
      9859      9861      9864      9867      9860      9859      9861      9862
      9860      9859      9861      9863      9860      9859      9861      9864
      9861      9864      9867      9868      9861      9864      9867      9869
      9861      9864      9867      9870      9862      9861      9864      9865
      9862      9861      9864      9866      9862      9861      9864      9867
      9863      9861      9864      9865      9863      9861      9864      9866
      9863      9861      9864      9867      9864      9867      9870      9871
      9864      9867      9870      9872      9864      9867      9870      9873
      9865      9864      9867      9868      9865      9864      9867      9869
      9865      9864      9867      9870      9866      9864      9867      9868
      9866      9864      9867      9869      9866      9864      9867      9870
      9867      9870      9873      9874      9867      9870      9873      9875
      9867      9870      9873      9876      9868      9867      9870      9871
      9868      9867      9870      9872      9868      9867      9870      9873
      9869      9867      9870      9871      9869      9867      9870      9872
      9869      9867      9870      9873      9870      9873      9876      9877
      9870      9873      9876      9878      9870      9873      9876      9879
      9871      9870      9873      9874      9871      9870      9873      9875
      9871      9870      9873      9876      9872      9870      9873      9874
      9872      9870      9873      9875      9872      9870      9873      9876
      9873      9876      9879      9880      9873      9876      9879      9881
      9873      9876      9879      9882      9874      9873      9876      9877
      9874      9873      9876      9878      9874      9873      9876      9879
      9875      9873      9876      9877      9875      9873      9876      9878
      9875      9873      9876      9879      9876      9879      9882      9883
      9876      9879      9882      9884      9876      9879      9882      9885
      9877      9876      9879      9880      9877      9876      9879      9881
      9877      9876      9879      9882      9878      9876      9879      9880
      9878      9876      9879      9881      9878      9876      9879      9882
      9879      9882      9885      9886      9879      9882      9885      9887
      9879      9882      9885      9888      9880      9879      9882      9883
      9880      9879      9882      9884      9880      9879      9882      9885
      9881      9879      9882      9883      9881      9879      9882      9884
      9881      9879      9882      9885      9882      9885      9888      9889
      9882      9885      9888      9890      9882      9885      9888      9891
      9883      9882      9885      9886      9883      9882      9885      9887
      9883      9882      9885      9888      9884      9882      9885      9886
      9884      9882      9885      9887      9884      9882      9885      9888
      9885      9888      9891      9892      9885      9888      9891      9893
      9885      9888      9891      9894      9886      9885      9888      9889
      9886      9885      9888      9890      9886      9885      9888      9891
      9887      9885      9888      9889      9887      9885      9888      9890
      9887      9885      9888      9891      9888      9891      9894      9895
      9888      9891      9894      9896      9888      9891      9894      9897
      9889      9888      9891      9892      9889      9888      9891      9893
      9889      9888      9891      9894      9890      9888      9891      9892
      9890      9888      9891      9893      9890      9888      9891      9894
      9891      9894      9897      9898      9891      9894      9897      9899
      9891      9894      9897      9900      9892      9891      9894      9895
      9892      9891      9894      9896      9892      9891      9894      9897
      9893      9891      9894      9895      9893      9891      9894      9896
      9893      9891      9894      9897      9895      9894      9897      9898
      9895      9894      9897      9899      9895      9894      9897      9900
      9896      9894      9897      9898      9896      9894      9897      9899
      9896      9894      9897      9900      9901      9903      9906      9907
      9901      9903      9906      9908      9901      9903      9906      9909
      9902      9901      9903      9904      9902      9901      9903      9905
      9902      9901      9903      9906      9903      9906      9909      9910
      9903      9906      9909      9911      9903      9906      9909      9912
      9904      9903      9906      9907      9904      9903      9906      9908
      9904      9903      9906      9909      9905      9903      9906      9907
      9905      9903      9906      9908      9905      9903      9906      9909
      9906      9909      9912      9913      9906      9909      9912      9914
      9906      9909      9912      9915      9907      9906      9909      9910
      9907      9906      9909      9911      9907      9906      9909      9912
      9908      9906      9909      9910      9908      9906      9909      9911
      9908      9906      9909      9912      9909      9912      9915      9916
      9909      9912      9915      9917      9909      9912      9915      9918
      9910      9909      9912      9913      9910      9909      9912      9914
      9910      9909      9912      9915      9911      9909      9912      9913
      9911      9909      9912      9914      9911      9909      9912      9915
      9912      9915      9918      9919      9912      9915      9918      9920
      9912      9915      9918      9921      9913      9912      9915      9916
      9913      9912      9915      9917      9913      9912      9915      9918
      9914      9912      9915      9916      9914      9912      9915      9917
      9914      9912      9915      9918      9915      9918      9921      9922
      9915      9918      9921      9923      9915      9918      9921      9924
      9916      9915      9918      9919      9916      9915      9918      9920
      9916      9915      9918      9921      9917      9915      9918      9919
      9917      9915      9918      9920      9917      9915      9918      9921
      9918      9921      9924      9925      9918      9921      9924      9926
      9918      9921      9924      9927      9919      9918      9921      9922
      9919      9918      9921      9923      9919      9918      9921      9924
      9920      9918      9921      9922      9920      9918      9921      9923
      9920      9918      9921      9924      9921      9924      9927      9928
      9921      9924      9927      9929      9921      9924      9927      9930
      9922      9921      9924      9925      9922      9921      9924      9926
      9922      9921      9924      9927      9923      9921      9924      9925
      9923      9921      9924      9926      9923      9921      9924      9927
      9924      9927      9930      9931      9924      9927      9930      9932
      9924      9927      9930      9933      9925      9924      9927      9928
      9925      9924      9927      9929      9925      9924      9927      9930
      9926      9924      9927      9928      9926      9924      9927      9929
      9926      9924      9927      9930      9927      9930      9933      9934
      9927      9930      9933      9935      9927      9930      9933      9936
      9928      9927      9930      9931      9928      9927      9930      9932
      9928      9927      9930      9933      9929      9927      9930      9931
      9929      9927      9930      9932      9929      9927      9930      9933
      9930      9933      9936      9937      9930      9933      9936      9938
      9930      9933      9936      9939      9931      9930      9933      9934
      9931      9930      9933      9935      9931      9930      9933      9936
      9932      9930      9933      9934      9932      9930      9933      9935
      9932      9930      9933      9936      9933      9936      9939      9940
      9933      9936      9939      9941      9933      9936      9939      9942
      9934      9933      9936      9937      9934      9933      9936      9938
      9934      9933      9936      9939      9935      9933      9936      9937
      9935      9933      9936      9938      9935      9933      9936      9939
      9936      9939      9942      9943      9936      9939      9942      9944
      9936      9939      9942      9945      9937      9936      9939      9940
      9937      9936      9939      9941      9937      9936      9939      9942
      9938      9936      9939      9940      9938      9936      9939      9941
      9938      9936      9939      9942      9939      9942      9945      9946
      9939      9942      9945      9947      9939      9942      9945      9948
      9940      9939      9942      9943      9940      9939      9942      9944
      9940      9939      9942      9945      9941      9939      9942      9943
      9941      9939      9942      9944      9941      9939      9942      9945
      9942      9945      9948      9949      9942      9945      9948      9950
      9942      9945      9948      9951      9943      9942      9945      9946
      9943      9942      9945      9947      9943      9942      9945      9948
      9944      9942      9945      9946      9944      9942      9945      9947
      9944      9942      9945      9948      9945      9948      9951      9952
      9945      9948      9951      9953      9945      9948      9951      9954
      9946      9945      9948      9949      9946      9945      9948      9950
      9946      9945      9948      9951      9947      9945      9948      9949
      9947      9945      9948      9950      9947      9945      9948      9951
      9948      9951      9954      9955      9948      9951      9954      9956
      9948      9951      9954      9957      9949      9948      9951      9952
      9949      9948      9951      9953      9949      9948      9951      9954
      9950      9948      9951      9952      9950      9948      9951      9953
      9950      9948      9951      9954      9951      9954      9957      9958
      9951      9954      9957      9959      9951      9954      9957      9960
      9952      9951      9954      9955      9952      9951      9954      9956
      9952      9951      9954      9957      9953      9951      9954      9955
      9953      9951      9954      9956      9953      9951      9954      9957
      9954      9957      9960      9961      9954      9957      9960      9962
      9954      9957      9960      9963      9955      9954      9957      9958
      9955      9954      9957      9959      9955      9954      9957      9960
      9956      9954      9957      9958      9956      9954      9957      9959
      9956      9954      9957      9960      9957      9960      9963      9964
      9957      9960      9963      9965      9957      9960      9963      9966
      9958      9957      9960      9961      9958      9957      9960      9962
      9958      9957      9960      9963      9959      9957      9960      9961
      9959      9957      9960      9962      9959      9957      9960      9963
      9960      9963      9966      9967      9960      9963      9966      9968
      9960      9963      9966      9969      9961      9960      9963      9964
      9961      9960      9963      9965      9961      9960      9963      9966
      9962      9960      9963      9964      9962      9960      9963      9965
      9962      9960      9963      9966      9964      9963      9966      9967
      9964      9963      9966      9968      9964      9963      9966      9969
      9965      9963      9966      9967      9965      9963      9966      9968
      9965      9963      9966      9969      9970      9974      9977      9978
      9970      9974      9977     10008      9970     10016     10013     10008
      9970     10016     10013     10014      9970     10016     10013     10015
      9971      9970      9972      9973      9971      9970      9974      9975
      9971      9970      9974      9976      9971      9970      9974      9977
      9971      9970     10016     10013      9971      9970     10016     10017
      9971      9970     10016     10018      9972      9970      9974      9975
      9972      9970      9974      9976      9972      9970      9974      9977
      9972      9970     10016     10013      9972      9970     10016     10017
      9972      9970     10016     10018      9973      9972      9970      9974
      9973      9972      9970     10016      9974      9970     10016     10013
      9974      9970     10016     10017      9974      9970     10016     10018
      9974      9977      9978      9979      9974      9977      9978      9980
      9974      9977     10008     10006      9974      9977     10008     10009
      9974      9977     10008     10013      9975      9974      9970     10016
      9975      9974      9977      9978      9975      9974      9977     10008
      9976      9974      9970     10016      9976      9974      9977      9978
      9976      9974      9977     10008      9977      9974      9970     10016
      9977      9978      9980      9981      9977      9978      9980      9982
      9977      9978      9980      9983      9977     10008     10006      9983
      9977     10008     10006     10003      9977     10008     10006     10007
      9977     10008     10009     10010      9977     10008     10009     10011
      9977     10008     10009     10012      9977     10008     10013     10014
      9977     10008     10013     10015      9977     10008     10013     10016
      9978      9977     10008     10006      9978      9977     10008     10009
      9978      9977     10008     10013      9978      9980      9983      9984
      9978      9980      9983      9985      9978      9980      9983     10006
      9979      9978      9977     10008      9979      9978      9980      9981
      9979      9978      9980      9982      9979      9978      9980      9983
      9980      9978      9977     10008      9980      9983      9985      9986
      9980      9983      9985      9987      9980      9983      9985      9995
      9980      9983     10006     10003      9980      9983     10006     10007
      9980      9983     10006     10008      9981      9980      9983      9984
      9981      9980      9983      9985      9981      9980      9983     10006
      9982      9980      9983      9984      9982      9980      9983      9985
      9982      9980      9983     10006      9983      9985      9987      9988
      9983      9985      9987      9989      9983      9985      9987      9990
      9983      9985      9995      9993      9983      9985      9995      9996
      9983      9985      9995     10000      9983     10006     10003     10000
      9983     10006     10003     10004      9983     10006     10003     10005
      9983     10006     10008     10009      9983     10006     10008     10013
      9984      9983      9985      9986      9984      9983      9985      9987
      9984      9983      9985      9995      9984      9983     10006     10003
      9984      9983     10006     10007      9984      9983     10006     10008
      9985      9983     10006     10003      9985      9983     10006     10007
      9985      9983     10006     10008      9985      9987      9990      9991
      9985      9987      9990      9992      9985      9987      9990      9993
      9985      9995      9993      9990      9985      9995      9993      9994
      9985      9995      9993     10019      9985      9995      9996      9997
      9985      9995      9996      9998      9985      9995      9996      9999
      9985      9995     10000     10001      9985      9995     10000     10002
      9985      9995     10000     10003      9986      9985      9983     10006
      9986      9985      9987      9988      9986      9985      9987      9989
      9986      9985      9987      9990      9986      9985      9995      9993
      9986      9985      9995      9996      9986      9985      9995     10000
      9987      9985      9983     10006      9987      9985      9995      9993
      9987      9985      9995      9996      9987      9985      9995     10000
      9987      9990      9993      9994      9987      9990      9993      9995
      9987      9990      9993     10019      9988      9987      9985      9995
      9988      9987      9990      9991      9988      9987      9990      9992
      9988      9987      9990      9993      9989      9987      9985      9995
      9989      9987      9990      9991      9989      9987      9990      9992
      9989      9987      9990      9993      9990      9987      9985      9995
      9990      9993      9995      9996      9990      9993      9995     10000
      9990      9993     10019     10020      9990      9993     10019     10021
      9990      9993     10019     10025      9991      9990      9993      9994
      9991      9990      9993      9995      9991      9990      9993     10019
      9992      9990      9993      9994      9992      9990      9993      9995
      9992      9990      9993     10019      9993      9995      9996      9997
      9993      9995      9996      9998      9993      9995      9996      9999
      9993      9995     10000     10001      9993      9995     10000     10002
      9993      9995     10000     10003      9993     10019     10021     10022
      9993     10019     10021     10023      9993     10019     10021     10024
      9993     10019     10025     10026      9993     10019     10025     10027
      9993     10019     10025     10028      9994      9993      9995      9996
      9994      9993      9995     10000      9994      9993     10019     10020
      9994      9993     10019     10021      9994      9993     10019     10025
      9995      9985      9983     10006      9995      9993     10019     10020
      9995      9993     10019     10021      9995      9993     10019     10025
      9995     10000     10003     10004      9995     10000     10003     10005
      9995     10000     10003     10006      9996      9995      9993     10019
      9996      9995     10000     10001      9996      9995     10000     10002
      9996      9995     10000     10003      9997      9996      9995     10000
      9998      9996      9995     10000      9999      9996      9995     10000
     10000      9995      9993     10019     10000     10003     10006     10007
     10000     10003     10006     10008     10001     10000     10003     10004
     10001     10000     10003     10005     10001     10000     10003     10006
     10002     10000     10003     10004     10002     10000     10003     10005
     10002     10000     10003     10006     10003     10006     10008     10009
     10003     10006     10008     10013     10004     10003     10006     10007
     10004     10003     10006     10008     10005     10003     10006     10007
     10005     10003     10006     10008     10006     10008     10009     10010
     10006     10008     10009     10011     10006     10008     10009     10012
     10006     10008     10013     10014     10006     10008     10013     10015
     10006     10008     10013     10016     10007     10006     10008     10009
     10007     10006     10008     10013     10008     10013     10016     10017
     10008     10013     10016     10018     10009     10008     10013     10014
     10009     10008     10013     10015     10009     10008     10013     10016
     10010     10009     10008     10013     10011     10009     10008     10013
     10012     10009     10008     10013     10014     10013     10016     10017
     10014     10013     10016     10018     10015     10013     10016     10017
     10015     10013     10016     10018     10019     10025     10028     10029
     10019     10025     10028     10030     10019     10025     10028     10031
     10020     10019     10021     10022     10020     10019     10021     10023
     10020     10019     10021     10024     10020     10019     10025     10026
     10020     10019     10025     10027     10020     10019     10025     10028
     10021     10019     10025     10026     10021     10019     10025     10027
     10021     10019     10025     10028     10022     10021     10019     10025
     10023     10021     10019     10025     10024     10021     10019     10025
     10025     10028     10031     10032     10025     10028     10031     10033
     10025     10028     10031     10034     10026     10025     10028     10029
     10026     10025     10028     10030     10026     10025     10028     10031
     10027     10025     10028     10029     10027     10025     10028     10030
     10027     10025     10028     10031     10028     10031     10034     10035
     10028     10031     10034     10036     10028     10031     10034     10040
     10029     10028     10031     10032     10029     10028     10031     10033
     10029     10028     10031     10034     10030     10028     10031     10032
     10030     10028     10031     10033     10030     10028     10031     10034
     10031     10034     10036     10037     10031     10034     10036     10038
     10031     10034     10036     10039     10031     10034     10040     10041
     10031     10034     10040     10042     10031     10034     10040     10043
     10032     10031     10034     10035     10032     10031     10034     10036
     10032     10031     10034     10040     10033     10031     10034     10035
     10033     10031     10034     10036     10033     10031     10034     10040
     10035     10034     10036     10037     10035     10034     10036     10038
     10035     10034     10036     10039     10035     10034     10040     10041
     10035     10034     10040     10042     10035     10034     10040     10043
     10036     10034     10040     10041     10036     10034     10040     10042
     10036     10034     10040     10043     10037     10036     10034     10040
     10038     10036     10034     10040     10039     10036     10034     10040
     10044     10048     10051     10052     10044     10048     10051     10053
     10044     10048     10051     10058     10045     10044     10048     10049
     10045     10044     10048     10050     10045     10044     10048     10051
     10046     10044     10048     10049     10046     10044     10048     10050
     10046     10044     10048     10051     10047     10044     10048     10049
     10047     10044     10048     10050     10047     10044     10048     10051
     10048     10051     10058     10054     10049     10048     10051     10052
     10049     10048     10051     10053     10049     10048     10051     10058
     10050     10048     10051     10052     10050     10048     10051     10053
     10050     10048     10051     10058     10051     10058     10054     10055
     10051     10058     10054     10056     10051     10058     10054     10057
     10052     10051     10058     10054     10053     10051     10058     10054
     10054     10057     10059     10060     10054     10057     10059     10061
     10054     10057     10059     10062     10055     10054     10057     10059
     10056     10054     10057     10059     10057     10059     10062     10063
     10057     10059     10062     10064     10057     10059     10062     10070
     10058     10054     10057     10059     10059     10062     10064     10065
     10059     10062     10070     10071     10059     10062     10070     10072
     10059     10062     10070     10073     10060     10059     10062     10063
     10060     10059     10062     10064     10060     10059     10062     10070
     10061     10059     10062     10063     10061     10059     10062     10064
     10061     10059     10062     10070     10062     10064     10065     10066
     10062     10064     10065     10067     10062     10070     10073     10074
     10063     10062     10064     10065     10063     10062     10070     10071
     10063     10062     10070     10072     10063     10062     10070     10073
     10064     10062     10070     10071     10064     10062     10070     10072
     10064     10062     10070     10073     10064     10065     10067     10068
     10064     10065     10067     10069     10064     10065     10067     10079
     10065     10064     10062     10070     10065     10067     10079     10080
     10065     10067     10079     10081     10065     10067     10079     10082
     10066     10065     10067     10068     10066     10065     10067     10069
     10066     10065     10067     10079     10067     10079     10082     10083
     10067     10079     10082     10084     10067     10079     10082     10085
     10068     10067     10079     10080     10068     10067     10079     10081
     10068     10067     10079     10082     10069     10067     10079     10080
     10069     10067     10079     10081     10069     10067     10079     10082
     10070     10073     10074     10075     10070     10073     10074     10076
     10071     10070     10073     10074     10072     10070     10073     10074
     10073     10074     10076     10077     10073     10074     10076     10078
     10073     10074     10076     10126     10074     10076     10126     10127
     10074     10076     10126     10128     10074     10076     10126     10129
     10075     10074     10076     10077     10075     10074     10076     10078
     10075     10074     10076     10126     10076     10126     10129     10130
     10076     10126     10129     10131     10076     10126     10129     10132
     10077     10076     10126     10127     10077     10076     10126     10128
     10077     10076     10126     10129     10078     10076     10126     10127
     10078     10076     10126     10128     10078     10076     10126     10129
     10079     10082     10085     10086     10079     10082     10085     10087
     10079     10082     10085     10088     10080     10079     10082     10083
     10080     10079     10082     10084     10080     10079     10082     10085
     10081     10079     10082     10083     10081     10079     10082     10084
     10081     10079     10082     10085     10082     10085     10088     10089
     10082     10085     10088     10090     10082     10085     10088     10091
     10083     10082     10085     10086     10083     10082     10085     10087
     10083     10082     10085     10088     10084     10082     10085     10086
     10084     10082     10085     10087     10084     10082     10085     10088
     10085     10088     10091     10092     10085     10088     10091     10093
     10085     10088     10091     10094     10086     10085     10088     10089
     10086     10085     10088     10090     10086     10085     10088     10091
     10087     10085     10088     10089     10087     10085     10088     10090
     10087     10085     10088     10091     10088     10091     10094     10095
     10088     10091     10094     10096     10088     10091     10094     10097
     10089     10088     10091     10092     10089     10088     10091     10093
     10089     10088     10091     10094     10090     10088     10091     10092
     10090     10088     10091     10093     10090     10088     10091     10094
     10091     10094     10097     10098     10091     10094     10097     10099
     10092     10091     10094     10095     10092     10091     10094     10096
     10092     10091     10094     10097     10093     10091     10094     10095
     10093     10091     10094     10096     10093     10091     10094     10097
     10094     10097     10099     10100     10094     10097     10099     10101
     10095     10094     10097     10098     10095     10094     10097     10099
     10096     10094     10097     10098     10096     10094     10097     10099
     10097     10099     10101     10102     10097     10099     10101     10103
     10097     10099     10101     10104     10098     10097     10099     10100
     10098     10097     10099     10101     10099     10101     10104     10105
     10099     10101     10104     10106     10099     10101     10104     10107
     10100     10099     10101     10102     10100     10099     10101     10103
     10100     10099     10101     10104     10101     10104     10107     10108
     10101     10104     10107     10109     10101     10104     10107     10110
     10102     10101     10104     10105     10102     10101     10104     10106
     10102     10101     10104     10107     10103     10101     10104     10105
     10103     10101     10104     10106     10103     10101     10104     10107
     10104     10107     10110     10111     10104     10107     10110     10112
     10104     10107     10110     10113     10105     10104     10107     10108
     10105     10104     10107     10109     10105     10104     10107     10110
     10106     10104     10107     10108     10106     10104     10107     10109
     10106     10104     10107     10110     10107     10110     10113     10114
     10107     10110     10113     10115     10107     10110     10113     10116
     10108     10107     10110     10111     10108     10107     10110     10112
     10108     10107     10110     10113     10109     10107     10110     10111
     10109     10107     10110     10112     10109     10107     10110     10113
     10110     10113     10116     10117     10110     10113     10116     10118
     10110     10113     10116     10119     10111     10110     10113     10114
     10111     10110     10113     10115     10111     10110     10113     10116
     10112     10110     10113     10114     10112     10110     10113     10115
     10112     10110     10113     10116     10113     10116     10119     10120
     10113     10116     10119     10121     10113     10116     10119     10122
     10114     10113     10116     10117     10114     10113     10116     10118
     10114     10113     10116     10119     10115     10113     10116     10117
     10115     10113     10116     10118     10115     10113     10116     10119
     10116     10119     10122     10123     10116     10119     10122     10124
     10116     10119     10122     10125     10117     10116     10119     10120
     10117     10116     10119     10121     10117     10116     10119     10122
     10118     10116     10119     10120     10118     10116     10119     10121
     10118     10116     10119     10122     10120     10119     10122     10123
     10120     10119     10122     10124     10120     10119     10122     10125
     10121     10119     10122     10123     10121     10119     10122     10124
     10121     10119     10122     10125     10126     10129     10132     10133
     10126     10129     10132     10134     10126     10129     10132     10135
     10127     10126     10129     10130     10127     10126     10129     10131
     10127     10126     10129     10132     10128     10126     10129     10130
     10128     10126     10129     10131     10128     10126     10129     10132
     10129     10132     10135     10136     10129     10132     10135     10137
     10129     10132     10135     10138     10130     10129     10132     10133
     10130     10129     10132     10134     10130     10129     10132     10135
     10131     10129     10132     10133     10131     10129     10132     10134
     10131     10129     10132     10135     10132     10135     10138     10139
     10132     10135     10138     10140     10132     10135     10138     10141
     10133     10132     10135     10136     10133     10132     10135     10137
     10133     10132     10135     10138     10134     10132     10135     10136
     10134     10132     10135     10137     10134     10132     10135     10138
     10135     10138     10141     10142     10135     10138     10141     10143
     10135     10138     10141     10144     10136     10135     10138     10139
     10136     10135     10138     10140     10136     10135     10138     10141
     10137     10135     10138     10139     10137     10135     10138     10140
     10137     10135     10138     10141     10138     10141     10144     10145
     10138     10141     10144     10146     10139     10138     10141     10142
     10139     10138     10141     10143     10139     10138     10141     10144
     10140     10138     10141     10142     10140     10138     10141     10143
     10140     10138     10141     10144     10141     10144     10146     10147
     10141     10144     10146     10148     10142     10141     10144     10145
     10142     10141     10144     10146     10143     10141     10144     10145
     10143     10141     10144     10146     10144     10146     10148     10149
     10144     10146     10148     10150     10144     10146     10148     10151
     10145     10144     10146     10147     10145     10144     10146     10148
     10146     10148     10151     10152     10146     10148     10151     10153
     10146     10148     10151     10154     10147     10146     10148     10149
     10147     10146     10148     10150     10147     10146     10148     10151
     10148     10151     10154     10155     10148     10151     10154     10156
     10148     10151     10154     10157     10149     10148     10151     10152
     10149     10148     10151     10153     10149     10148     10151     10154
     10150     10148     10151     10152     10150     10148     10151     10153
     10150     10148     10151     10154     10151     10154     10157     10158
     10151     10154     10157     10159     10151     10154     10157     10160
     10152     10151     10154     10155     10152     10151     10154     10156
     10152     10151     10154     10157     10153     10151     10154     10155
     10153     10151     10154     10156     10153     10151     10154     10157
     10154     10157     10160     10161     10154     10157     10160     10162
     10154     10157     10160     10163     10155     10154     10157     10158
     10155     10154     10157     10159     10155     10154     10157     10160
     10156     10154     10157     10158     10156     10154     10157     10159
     10156     10154     10157     10160     10157     10160     10163     10164
     10157     10160     10163     10165     10157     10160     10163     10166
     10158     10157     10160     10161     10158     10157     10160     10162
     10158     10157     10160     10163     10159     10157     10160     10161
     10159     10157     10160     10162     10159     10157     10160     10163
     10160     10163     10166     10167     10160     10163     10166     10168
     10160     10163     10166     10169     10161     10160     10163     10164
     10161     10160     10163     10165     10161     10160     10163     10166
     10162     10160     10163     10164     10162     10160     10163     10165
     10162     10160     10163     10166     10163     10166     10169     10170
     10163     10166     10169     10171     10163     10166     10169     10172
     10164     10163     10166     10167     10164     10163     10166     10168
     10164     10163     10166     10169     10165     10163     10166     10167
     10165     10163     10166     10168     10165     10163     10166     10169
     10167     10166     10169     10170     10167     10166     10169     10171
     10167     10166     10169     10172     10168     10166     10169     10170
     10168     10166     10169     10171     10168     10166     10169     10172
     10173     10174     10189     10190     10173     10174     10189     10191
     10173     10174     10189     10195     10174     10173     10177     10178
     10174     10173     10177     10179     10174     10173     10177     10180
     10174     10173     10181     10182     10174     10173     10181     10183
     10174     10173     10181     10184     10174     10173     10185     10186
     10174     10173     10185     10187     10174     10173     10185     10188
     10174     10189     10195     10192     10175     10174     10173     10177
     10175     10174     10173     10181     10175     10174     10173     10185
     10175     10174     10189     10190     10175     10174     10189     10191
     10175     10174     10189     10195     10176     10174     10173     10177
     10176     10174     10173     10181     10176     10174     10173     10185
     10176     10174     10189     10190     10176     10174     10189     10191
     10176     10174     10189     10195     10177     10173     10174     10189
     10177     10173     10181     10182     10177     10173     10181     10183
     10177     10173     10181     10184     10177     10173     10185     10186
     10177     10173     10185     10187     10177     10173     10185     10188
     10178     10177     10173     10181     10178     10177     10173     10185
     10179     10177     10173     10181     10179     10177     10173     10185
     10180     10177     10173     10181     10180     10177     10173     10185
     10181     10173     10174     10189     10181     10173     10185     10186
     10181     10173     10185     10187     10181     10173     10185     10188
     10182     10181     10173     10185     10183     10181     10173     10185
     10184     10181     10173     10185     10185     10173     10174     10189
     10189     10195     10192     10193     10189     10195     10192     10194
     10189     10195     10192     10196     10190     10189     10195     10192
     10191     10189     10195     10192     10192     10196     10197     10198
     10192     10196     10197     10199     10192     10196     10197     10200
     10193     10192     10196     10197     10194     10192     10196     10197
     10195     10192     10196     10197     10196     10197     10200     10201
     10196     10197     10200     10202     10196     10197     10200     10208
     10197     10200     10202     10203     10197     10200     10208     10209
     10197     10200     10208     10210     10197     10200     10208     10211
     10198     10197     10200     10201     10198     10197     10200     10202
     10198     10197     10200     10208     10199     10197     10200     10201
     10199     10197     10200     10202     10199     10197     10200     10208
     10200     10202     10203     10204     10200     10202     10203     10205
     10200     10208     10211     10212     10201     10200     10202     10203
     10201     10200     10208     10209     10201     10200     10208     10210
     10201     10200     10208     10211     10202     10200     10208     10209
     10202     10200     10208     10210     10202     10200     10208     10211
     10202     10203     10205     10206     10202     10203     10205     10207
     10202     10203     10205     10217     10203     10202     10200     10208
     10203     10205     10217     10218     10203     10205     10217     10219
     10203     10205     10217     10220     10204     10203     10205     10206
     10204     10203     10205     10207     10204     10203     10205     10217
     10205     10217     10220     10221     10205     10217     10220     10222
     10205     10217     10220     10223     10206     10205     10217     10218
     10206     10205     10217     10219     10206     10205     10217     10220
     10207     10205     10217     10218     10207     10205     10217     10219
     10207     10205     10217     10220     10208     10211     10212     10213
     10208     10211     10212     10214     10209     10208     10211     10212
     10210     10208     10211     10212     10211     10212     10214     10215
     10211     10212     10214     10216     10211     10212     10214     10264
     10212     10214     10264     10265     10212     10214     10264     10266
     10212     10214     10264     10267     10213     10212     10214     10215
     10213     10212     10214     10216     10213     10212     10214     10264
     10214     10264     10267     10268     10214     10264     10267     10269
     10214     10264     10267     10270     10215     10214     10264     10265
     10215     10214     10264     10266     10215     10214     10264     10267
     10216     10214     10264     10265     10216     10214     10264     10266
     10216     10214     10264     10267     10217     10220     10223     10224
     10217     10220     10223     10225     10217     10220     10223     10226
     10218     10217     10220     10221     10218     10217     10220     10222
     10218     10217     10220     10223     10219     10217     10220     10221
     10219     10217     10220     10222     10219     10217     10220     10223
     10220     10223     10226     10227     10220     10223     10226     10228
     10220     10223     10226     10229     10221     10220     10223     10224
     10221     10220     10223     10225     10221     10220     10223     10226
     10222     10220     10223     10224     10222     10220     10223     10225
     10222     10220     10223     10226     10223     10226     10229     10230
     10223     10226     10229     10231     10223     10226     10229     10232
     10224     10223     10226     10227     10224     10223     10226     10228
     10224     10223     10226     10229     10225     10223     10226     10227
     10225     10223     10226     10228     10225     10223     10226     10229
     10226     10229     10232     10233     10226     10229     10232     10234
     10226     10229     10232     10235     10227     10226     10229     10230
     10227     10226     10229     10231     10227     10226     10229     10232
     10228     10226     10229     10230     10228     10226     10229     10231
     10228     10226     10229     10232     10229     10232     10235     10236
     10229     10232     10235     10237     10230     10229     10232     10233
     10230     10229     10232     10234     10230     10229     10232     10235
     10231     10229     10232     10233     10231     10229     10232     10234
     10231     10229     10232     10235     10232     10235     10237     10238
     10232     10235     10237     10239     10233     10232     10235     10236
     10233     10232     10235     10237     10234     10232     10235     10236
     10234     10232     10235     10237     10235     10237     10239     10240
     10235     10237     10239     10241     10235     10237     10239     10242
     10236     10235     10237     10238     10236     10235     10237     10239
     10237     10239     10242     10243     10237     10239     10242     10244
     10237     10239     10242     10245     10238     10237     10239     10240
     10238     10237     10239     10241     10238     10237     10239     10242
     10239     10242     10245     10246     10239     10242     10245     10247
     10239     10242     10245     10248     10240     10239     10242     10243
     10240     10239     10242     10244     10240     10239     10242     10245
     10241     10239     10242     10243     10241     10239     10242     10244
     10241     10239     10242     10245     10242     10245     10248     10249
     10242     10245     10248     10250     10242     10245     10248     10251
     10243     10242     10245     10246     10243     10242     10245     10247
     10243     10242     10245     10248     10244     10242     10245     10246
     10244     10242     10245     10247     10244     10242     10245     10248
     10245     10248     10251     10252     10245     10248     10251     10253
     10245     10248     10251     10254     10246     10245     10248     10249
     10246     10245     10248     10250     10246     10245     10248     10251
     10247     10245     10248     10249     10247     10245     10248     10250
     10247     10245     10248     10251     10248     10251     10254     10255
     10248     10251     10254     10256     10248     10251     10254     10257
     10249     10248     10251     10252     10249     10248     10251     10253
     10249     10248     10251     10254     10250     10248     10251     10252
     10250     10248     10251     10253     10250     10248     10251     10254
     10251     10254     10257     10258     10251     10254     10257     10259
     10251     10254     10257     10260     10252     10251     10254     10255
     10252     10251     10254     10256     10252     10251     10254     10257
     10253     10251     10254     10255     10253     10251     10254     10256
     10253     10251     10254     10257     10254     10257     10260     10261
     10254     10257     10260     10262     10254     10257     10260     10263
     10255     10254     10257     10258     10255     10254     10257     10259
     10255     10254     10257     10260     10256     10254     10257     10258
     10256     10254     10257     10259     10256     10254     10257     10260
     10258     10257     10260     10261     10258     10257     10260     10262
     10258     10257     10260     10263     10259     10257     10260     10261
     10259     10257     10260     10262     10259     10257     10260     10263
     10264     10267     10270     10271     10264     10267     10270     10272
     10264     10267     10270     10273     10265     10264     10267     10268
     10265     10264     10267     10269     10265     10264     10267     10270
     10266     10264     10267     10268     10266     10264     10267     10269
     10266     10264     10267     10270     10267     10270     10273     10274
     10267     10270     10273     10275     10267     10270     10273     10276
     10268     10267     10270     10271     10268     10267     10270     10272
     10268     10267     10270     10273     10269     10267     10270     10271
     10269     10267     10270     10272     10269     10267     10270     10273
     10270     10273     10276     10277     10270     10273     10276     10278
     10270     10273     10276     10279     10271     10270     10273     10274
     10271     10270     10273     10275     10271     10270     10273     10276
     10272     10270     10273     10274     10272     10270     10273     10275
     10272     10270     10273     10276     10273     10276     10279     10280
     10273     10276     10279     10281     10273     10276     10279     10282
     10274     10273     10276     10277     10274     10273     10276     10278
     10274     10273     10276     10279     10275     10273     10276     10277
     10275     10273     10276     10278     10275     10273     10276     10279
     10276     10279     10282     10283     10276     10279     10282     10284
     10277     10276     10279     10280     10277     10276     10279     10281
     10277     10276     10279     10282     10278     10276     10279     10280
     10278     10276     10279     10281     10278     10276     10279     10282
     10279     10282     10284     10285     10279     10282     10284     10286
     10280     10279     10282     10283     10280     10279     10282     10284
     10281     10279     10282     10283     10281     10279     10282     10284
     10282     10284     10286     10287     10282     10284     10286     10288
     10282     10284     10286     10289     10283     10282     10284     10285
     10283     10282     10284     10286     10284     10286     10289     10290
     10284     10286     10289     10291     10284     10286     10289     10292
     10285     10284     10286     10287     10285     10284     10286     10288
     10285     10284     10286     10289     10286     10289     10292     10293
     10286     10289     10292     10294     10286     10289     10292     10295
     10287     10286     10289     10290     10287     10286     10289     10291
     10287     10286     10289     10292     10288     10286     10289     10290
     10288     10286     10289     10291     10288     10286     10289     10292
     10289     10292     10295     10296     10289     10292     10295     10297
     10289     10292     10295     10298     10290     10289     10292     10293
     10290     10289     10292     10294     10290     10289     10292     10295
     10291     10289     10292     10293     10291     10289     10292     10294
     10291     10289     10292     10295     10292     10295     10298     10299
     10292     10295     10298     10300     10292     10295     10298     10301
     10293     10292     10295     10296     10293     10292     10295     10297
     10293     10292     10295     10298     10294     10292     10295     10296
     10294     10292     10295     10297     10294     10292     10295     10298
     10295     10298     10301     10302     10295     10298     10301     10303
     10295     10298     10301     10304     10296     10295     10298     10299
     10296     10295     10298     10300     10296     10295     10298     10301
     10297     10295     10298     10299     10297     10295     10298     10300
     10297     10295     10298     10301     10298     10301     10304     10305
     10298     10301     10304     10306     10298     10301     10304     10307
     10299     10298     10301     10302     10299     10298     10301     10303
     10299     10298     10301     10304     10300     10298     10301     10302
     10300     10298     10301     10303     10300     10298     10301     10304
     10301     10304     10307     10308     10301     10304     10307     10309
     10301     10304     10307     10310     10302     10301     10304     10305
     10302     10301     10304     10306     10302     10301     10304     10307
     10303     10301     10304     10305     10303     10301     10304     10306
     10303     10301     10304     10307     10305     10304     10307     10308
     10305     10304     10307     10309     10305     10304     10307     10310
     10306     10304     10307     10308     10306     10304     10307     10309
     10306     10304     10307     10310     10311     10324     10327     10328
     10311     10324     10327     10329     10311     10324     10327     10334
     10312     10311     10316     10317     10312     10311     10316     10318
     10312     10311     10316     10319     10312     10311     10320     10321
     10312     10311     10320     10322     10312     10311     10320     10323
     10312     10311     10324     10325     10312     10311     10324     10326
     10312     10311     10324     10327     10313     10312     10311     10316
     10313     10312     10311     10320     10313     10312     10311     10324
     10314     10312     10311     10316     10314     10312     10311     10320
     10314     10312     10311     10324     10315     10312     10311     10316
     10315     10312     10311     10320     10315     10312     10311     10324
     10316     10311     10320     10321     10316     10311     10320     10322
     10316     10311     10320     10323     10316     10311     10324     10325
     10316     10311     10324     10326     10316     10311     10324     10327
     10317     10316     10311     10320     10317     10316     10311     10324
     10318     10316     10311     10320     10318     10316     10311     10324
     10319     10316     10311     10320     10319     10316     10311     10324
     10320     10311     10324     10325     10320     10311     10324     10326
     10320     10311     10324     10327     10321     10320     10311     10324
     10322     10320     10311     10324     10323     10320     10311     10324
     10324     10327     10334     10330     10325     10324     10327     10328
     10325     10324     10327     10329     10325     10324     10327     10334
     10326     10324     10327     10328     10326     10324     10327     10329
     10326     10324     10327     10334     10327     10334     10330     10331
     10327     10334     10330     10332     10327     10334     10330     10333
     10328     10327     10334     10330     10329     10327     10334     10330
     10330     10333     10335     10336     10330     10333     10335     10337
     10330     10333     10335     10340     10331     10330     10333     10335
     10332     10330     10333     10335     10333     10335     10340     10338
     10333     10335     10340     10341     10333     10335     10340     10342
     10334     10330     10333     10335     10335     10340     10338     10339
     10335     10340     10338     10390     10335     10340     10342     10343
     10335     10340     10342     10344     10335     10340     10342     10346
     10336     10335     10340     10338     10336     10335     10340     10341
     10336     10335     10340     10342     10337     10335     10340     10338
     10337     10335     10340     10341     10337     10335     10340     10342
     10338     10340     10342     10343     10338     10340     10342     10344
     10338     10340     10342     10346     10338     10390     10392     10393
     10338     10390     10392     10394     10338     10390     10392     10395
     10339     10338     10340     10341     10339     10338     10340     10342
     10339     10338     10390     10391     10339     10338     10390     10392
     10340     10338     10390     10391     10340     10338     10390     10392
     10340     10342     10344     10345     10340     10342     10346     10347
     10340     10342     10346     10348     10341     10340     10338     10390
     10341     10340     10342     10343     10341     10340     10342     10344
     10341     10340     10342     10346     10342     10340     10338     10390
     10342     10346     10348     10349     10342     10346     10348     10350
     10343     10342     10344     10345     10343     10342     10346     10347
     10343     10342     10346     10348     10344     10342     10346     10347
     10344     10342     10346     10348     10345     10344     10342     10346
     10346     10348     10350     10351     10346     10348     10350     10352
     10346     10348     10350     10353     10347     10346     10348     10349
     10347     10346     10348     10350     10348     10350     10353     10354
     10348     10350     10353     10355     10348     10350     10353     10356
     10349     10348     10350     10351     10349     10348     10350     10352
     10349     10348     10350     10353     10350     10353     10356     10357
     10350     10353     10356     10358     10350     10353     10356     10359
     10351     10350     10353     10354     10351     10350     10353     10355
     10351     10350     10353     10356     10352     10350     10353     10354
     10352     10350     10353     10355     10352     10350     10353     10356
     10353     10356     10359     10360     10353     10356     10359     10361
     10353     10356     10359     10362     10354     10353     10356     10357
     10354     10353     10356     10358     10354     10353     10356     10359
     10355     10353     10356     10357     10355     10353     10356     10358
     10355     10353     10356     10359     10356     10359     10362     10363
     10356     10359     10362     10364     10356     10359     10362     10365
     10357     10356     10359     10360     10357     10356     10359     10361
     10357     10356     10359     10362     10358     10356     10359     10360
     10358     10356     10359     10361     10358     10356     10359     10362
     10359     10362     10365     10366     10359     10362     10365     10367
     10359     10362     10365     10368     10360     10359     10362     10363
     10360     10359     10362     10364     10360     10359     10362     10365
     10361     10359     10362     10363     10361     10359     10362     10364
     10361     10359     10362     10365     10362     10365     10368     10369
     10362     10365     10368     10370     10362     10365     10368     10371
     10363     10362     10365     10366     10363     10362     10365     10367
     10363     10362     10365     10368     10364     10362     10365     10366
     10364     10362     10365     10367     10364     10362     10365     10368
     10365     10368     10371     10372     10365     10368     10371     10373
     10365     10368     10371     10374     10366     10365     10368     10369
     10366     10365     10368     10370     10366     10365     10368     10371
     10367     10365     10368     10369     10367     10365     10368     10370
     10367     10365     10368     10371     10368     10371     10374     10375
     10368     10371     10374     10376     10368     10371     10374     10377
     10369     10368     10371     10372     10369     10368     10371     10373
     10369     10368     10371     10374     10370     10368     10371     10372
     10370     10368     10371     10373     10370     10368     10371     10374
     10371     10374     10377     10378     10371     10374     10377     10379
     10371     10374     10377     10380     10372     10371     10374     10375
     10372     10371     10374     10376     10372     10371     10374     10377
     10373     10371     10374     10375     10373     10371     10374     10376
     10373     10371     10374     10377     10374     10377     10380     10381
     10374     10377     10380     10382     10374     10377     10380     10383
     10375     10374     10377     10378     10375     10374     10377     10379
     10375     10374     10377     10380     10376     10374     10377     10378
     10376     10374     10377     10379     10376     10374     10377     10380
     10377     10380     10383     10384     10377     10380     10383     10385
     10377     10380     10383     10386     10378     10377     10380     10381
     10378     10377     10380     10382     10378     10377     10380     10383
     10379     10377     10380     10381     10379     10377     10380     10382
     10379     10377     10380     10383     10380     10383     10386     10387
     10380     10383     10386     10388     10380     10383     10386     10389
     10381     10380     10383     10384     10381     10380     10383     10385
     10381     10380     10383     10386     10382     10380     10383     10384
     10382     10380     10383     10385     10382     10380     10383     10386
     10384     10383     10386     10387     10384     10383     10386     10388
     10384     10383     10386     10389     10385     10383     10386     10387
     10385     10383     10386     10388     10385     10383     10386     10389
     10390     10392     10395     10396     10390     10392     10395     10397
     10390     10392     10395     10398     10391     10390     10392     10393
     10391     10390     10392     10394     10391     10390     10392     10395
     10392     10395     10398     10399     10392     10395     10398     10400
     10392     10395     10398     10401     10393     10392     10395     10396
     10393     10392     10395     10397     10393     10392     10395     10398
     10394     10392     10395     10396     10394     10392     10395     10397
     10394     10392     10395     10398     10395     10398     10401     10402
     10395     10398     10401     10403     10395     10398     10401     10404
     10396     10395     10398     10399     10396     10395     10398     10400
     10396     10395     10398     10401     10397     10395     10398     10399
     10397     10395     10398     10400     10397     10395     10398     10401
     10398     10401     10404     10405     10398     10401     10404     10406
     10398     10401     10404     10407     10399     10398     10401     10402
     10399     10398     10401     10403     10399     10398     10401     10404
     10400     10398     10401     10402     10400     10398     10401     10403
     10400     10398     10401     10404     10401     10404     10407     10408
     10401     10404     10407     10409     10401     10404     10407     10410
     10402     10401     10404     10405     10402     10401     10404     10406
     10402     10401     10404     10407     10403     10401     10404     10405
     10403     10401     10404     10406     10403     10401     10404     10407
     10404     10407     10410     10411     10404     10407     10410     10412
     10404     10407     10410     10413     10405     10404     10407     10408
     10405     10404     10407     10409     10405     10404     10407     10410
     10406     10404     10407     10408     10406     10404     10407     10409
     10406     10404     10407     10410     10407     10410     10413     10414
     10407     10410     10413     10415     10407     10410     10413     10416
     10408     10407     10410     10411     10408     10407     10410     10412
     10408     10407     10410     10413     10409     10407     10410     10411
     10409     10407     10410     10412     10409     10407     10410     10413
     10410     10413     10416     10417     10410     10413     10416     10418
     10410     10413     10416     10419     10411     10410     10413     10414
     10411     10410     10413     10415     10411     10410     10413     10416
     10412     10410     10413     10414     10412     10410     10413     10415
     10412     10410     10413     10416     10413     10416     10419     10420
     10413     10416     10419     10421     10413     10416     10419     10422
     10414     10413     10416     10417     10414     10413     10416     10418
     10414     10413     10416     10419     10415     10413     10416     10417
     10415     10413     10416     10418     10415     10413     10416     10419
     10416     10419     10422     10423     10416     10419     10422     10424
     10416     10419     10422     10425     10417     10416     10419     10420
     10417     10416     10419     10421     10417     10416     10419     10422
     10418     10416     10419     10420     10418     10416     10419     10421
     10418     10416     10419     10422     10419     10422     10425     10426
     10419     10422     10425     10427     10419     10422     10425     10428
     10420     10419     10422     10423     10420     10419     10422     10424
     10420     10419     10422     10425     10421     10419     10422     10423
     10421     10419     10422     10424     10421     10419     10422     10425
     10422     10425     10428     10429     10422     10425     10428     10430
     10422     10425     10428     10431     10423     10422     10425     10426
     10423     10422     10425     10427     10423     10422     10425     10428
     10424     10422     10425     10426     10424     10422     10425     10427
     10424     10422     10425     10428     10425     10428     10431     10432
     10425     10428     10431     10433     10425     10428     10431     10434
     10426     10425     10428     10429     10426     10425     10428     10430
     10426     10425     10428     10431     10427     10425     10428     10429
     10427     10425     10428     10430     10427     10425     10428     10431
     10428     10431     10434     10435     10428     10431     10434     10436
     10428     10431     10434     10437     10429     10428     10431     10432
     10429     10428     10431     10433     10429     10428     10431     10434
     10430     10428     10431     10432     10430     10428     10431     10433
     10430     10428     10431     10434     10431     10434     10437     10438
     10431     10434     10437     10439     10431     10434     10437     10440
     10432     10431     10434     10435     10432     10431     10434     10436
     10432     10431     10434     10437     10433     10431     10434     10435
     10433     10431     10434     10436     10433     10431     10434     10437
     10434     10437     10440     10441     10434     10437     10440     10442
     10434     10437     10440     10443     10435     10434     10437     10438
     10435     10434     10437     10439     10435     10434     10437     10440
     10436     10434     10437     10438     10436     10434     10437     10439
     10436     10434     10437     10440     10437     10440     10443     10444
     10437     10440     10443     10445     10437     10440     10443     10446
     10438     10437     10440     10441     10438     10437     10440     10442
     10438     10437     10440     10443     10439     10437     10440     10441
     10439     10437     10440     10442     10439     10437     10440     10443
     10440     10443     10446     10447     10440     10443     10446     10448
     10440     10443     10446     10449     10441     10440     10443     10444
     10441     10440     10443     10445     10441     10440     10443     10446
     10442     10440     10443     10444     10442     10440     10443     10445
     10442     10440     10443     10446     10443     10446     10449     10450
     10443     10446     10449     10451     10443     10446     10449     10452
     10444     10443     10446     10447     10444     10443     10446     10448
     10444     10443     10446     10449     10445     10443     10446     10447
     10445     10443     10446     10448     10445     10443     10446     10449
     10446     10449     10452     10453     10446     10449     10452     10454
     10446     10449     10452     10455     10447     10446     10449     10450
     10447     10446     10449     10451     10447     10446     10449     10452
     10448     10446     10449     10450     10448     10446     10449     10451
     10448     10446     10449     10452     10449     10452     10455     10456
     10449     10452     10455     10457     10449     10452     10455     10458
     10450     10449     10452     10453     10450     10449     10452     10454
     10450     10449     10452     10455     10451     10449     10452     10453
     10451     10449     10452     10454     10451     10449     10452     10455
     10453     10452     10455     10456     10453     10452     10455     10457
     10453     10452     10455     10458     10454     10452     10455     10456
     10454     10452     10455     10457     10454     10452     10455     10458
     10459     10460     10475     10476     10459     10460     10475     10477
     10459     10460     10475     10481     10460     10459     10463     10464
     10460     10459     10463     10465     10460     10459     10463     10466
     10460     10459     10467     10468     10460     10459     10467     10469
     10460     10459     10467     10470     10460     10459     10471     10472
     10460     10459     10471     10473     10460     10459     10471     10474
     10460     10475     10481     10478     10461     10460     10459     10463
     10461     10460     10459     10467     10461     10460     10459     10471
     10461     10460     10475     10476     10461     10460     10475     10477
     10461     10460     10475     10481     10462     10460     10459     10463
     10462     10460     10459     10467     10462     10460     10459     10471
     10462     10460     10475     10476     10462     10460     10475     10477
     10462     10460     10475     10481     10463     10459     10460     10475
     10463     10459     10467     10468     10463     10459     10467     10469
     10463     10459     10467     10470     10463     10459     10471     10472
     10463     10459     10471     10473     10463     10459     10471     10474
     10464     10463     10459     10467     10464     10463     10459     10471
     10465     10463     10459     10467     10465     10463     10459     10471
     10466     10463     10459     10467     10466     10463     10459     10471
     10467     10459     10460     10475     10467     10459     10471     10472
     10467     10459     10471     10473     10467     10459     10471     10474
     10468     10467     10459     10471     10469     10467     10459     10471
     10470     10467     10459     10471     10471     10459     10460     10475
     10475     10481     10478     10479     10475     10481     10478     10480
     10475     10481     10478     10482     10476     10475     10481     10478
     10477     10475     10481     10478     10478     10482     10483     10484
     10478     10482     10483     10485     10478     10482     10483     10486
     10479     10478     10482     10483     10480     10478     10482     10483
     10481     10478     10482     10483     10482     10483     10486     10487
     10482     10483     10486     10488     10482     10483     10486     10494
     10483     10486     10488     10489     10483     10486     10494     10495
     10483     10486     10494     10496     10483     10486     10494     10497
     10484     10483     10486     10487     10484     10483     10486     10488
     10484     10483     10486     10494     10485     10483     10486     10487
     10485     10483     10486     10488     10485     10483     10486     10494
     10486     10488     10489     10490     10486     10488     10489     10491
     10486     10494     10497     10498     10487     10486     10488     10489
     10487     10486     10494     10495     10487     10486     10494     10496
     10487     10486     10494     10497     10488     10486     10494     10495
     10488     10486     10494     10496     10488     10486     10494     10497
     10488     10489     10491     10492     10488     10489     10491     10493
     10488     10489     10491     10503     10489     10488     10486     10494
     10489     10491     10503     10504     10489     10491     10503     10505
     10489     10491     10503     10506     10490     10489     10491     10492
     10490     10489     10491     10493     10490     10489     10491     10503
     10491     10503     10506     10507     10491     10503     10506     10508
     10491     10503     10506     10509     10492     10491     10503     10504
     10492     10491     10503     10505     10492     10491     10503     10506
     10493     10491     10503     10504     10493     10491     10503     10505
     10493     10491     10503     10506     10494     10497     10498     10499
     10494     10497     10498     10500     10495     10494     10497     10498
     10496     10494     10497     10498     10497     10498     10500     10501
     10497     10498     10500     10502     10497     10498     10500     10550
     10498     10500     10550     10551     10498     10500     10550     10552
     10498     10500     10550     10553     10499     10498     10500     10501
     10499     10498     10500     10502     10499     10498     10500     10550
     10500     10550     10553     10554     10500     10550     10553     10555
     10500     10550     10553     10556     10501     10500     10550     10551
     10501     10500     10550     10552     10501     10500     10550     10553
     10502     10500     10550     10551     10502     10500     10550     10552
     10502     10500     10550     10553     10503     10506     10509     10510
     10503     10506     10509     10511     10503     10506     10509     10512
     10504     10503     10506     10507     10504     10503     10506     10508
     10504     10503     10506     10509     10505     10503     10506     10507
     10505     10503     10506     10508     10505     10503     10506     10509
     10506     10509     10512     10513     10506     10509     10512     10514
     10506     10509     10512     10515     10507     10506     10509     10510
     10507     10506     10509     10511     10507     10506     10509     10512
     10508     10506     10509     10510     10508     10506     10509     10511
     10508     10506     10509     10512     10509     10512     10515     10516
     10509     10512     10515     10517     10509     10512     10515     10518
     10510     10509     10512     10513     10510     10509     10512     10514
     10510     10509     10512     10515     10511     10509     10512     10513
     10511     10509     10512     10514     10511     10509     10512     10515
     10512     10515     10518     10519     10512     10515     10518     10520
     10512     10515     10518     10521     10513     10512     10515     10516
     10513     10512     10515     10517     10513     10512     10515     10518
     10514     10512     10515     10516     10514     10512     10515     10517
     10514     10512     10515     10518     10515     10518     10521     10522
     10515     10518     10521     10523     10516     10515     10518     10519
     10516     10515     10518     10520     10516     10515     10518     10521
     10517     10515     10518     10519     10517     10515     10518     10520
     10517     10515     10518     10521     10518     10521     10523     10524
     10518     10521     10523     10525     10519     10518     10521     10522
     10519     10518     10521     10523     10520     10518     10521     10522
     10520     10518     10521     10523     10521     10523     10525     10526
     10521     10523     10525     10527     10521     10523     10525     10528
     10522     10521     10523     10524     10522     10521     10523     10525
     10523     10525     10528     10529     10523     10525     10528     10530
     10523     10525     10528     10531     10524     10523     10525     10526
     10524     10523     10525     10527     10524     10523     10525     10528
     10525     10528     10531     10532     10525     10528     10531     10533
     10525     10528     10531     10534     10526     10525     10528     10529
     10526     10525     10528     10530     10526     10525     10528     10531
     10527     10525     10528     10529     10527     10525     10528     10530
     10527     10525     10528     10531     10528     10531     10534     10535
     10528     10531     10534     10536     10528     10531     10534     10537
     10529     10528     10531     10532     10529     10528     10531     10533
     10529     10528     10531     10534     10530     10528     10531     10532
     10530     10528     10531     10533     10530     10528     10531     10534
     10531     10534     10537     10538     10531     10534     10537     10539
     10531     10534     10537     10540     10532     10531     10534     10535
     10532     10531     10534     10536     10532     10531     10534     10537
     10533     10531     10534     10535     10533     10531     10534     10536
     10533     10531     10534     10537     10534     10537     10540     10541
     10534     10537     10540     10542     10534     10537     10540     10543
     10535     10534     10537     10538     10535     10534     10537     10539
     10535     10534     10537     10540     10536     10534     10537     10538
     10536     10534     10537     10539     10536     10534     10537     10540
     10537     10540     10543     10544     10537     10540     10543     10545
     10537     10540     10543     10546     10538     10537     10540     10541
     10538     10537     10540     10542     10538     10537     10540     10543
     10539     10537     10540     10541     10539     10537     10540     10542
     10539     10537     10540     10543     10540     10543     10546     10547
     10540     10543     10546     10548     10540     10543     10546     10549
     10541     10540     10543     10544     10541     10540     10543     10545
     10541     10540     10543     10546     10542     10540     10543     10544
     10542     10540     10543     10545     10542     10540     10543     10546
     10544     10543     10546     10547     10544     10543     10546     10548
     10544     10543     10546     10549     10545     10543     10546     10547
     10545     10543     10546     10548     10545     10543     10546     10549
     10550     10553     10556     10557     10550     10553     10556     10558
     10550     10553     10556     10559     10551     10550     10553     10554
     10551     10550     10553     10555     10551     10550     10553     10556
     10552     10550     10553     10554     10552     10550     10553     10555
     10552     10550     10553     10556     10553     10556     10559     10560
     10553     10556     10559     10561     10553     10556     10559     10562
     10554     10553     10556     10557     10554     10553     10556     10558
     10554     10553     10556     10559     10555     10553     10556     10557
     10555     10553     10556     10558     10555     10553     10556     10559
     10556     10559     10562     10563     10556     10559     10562     10564
     10556     10559     10562     10565     10557     10556     10559     10560
     10557     10556     10559     10561     10557     10556     10559     10562
     10558     10556     10559     10560     10558     10556     10559     10561
     10558     10556     10559     10562     10559     10562     10565     10566
     10559     10562     10565     10567     10559     10562     10565     10568
     10560     10559     10562     10563     10560     10559     10562     10564
     10560     10559     10562     10565     10561     10559     10562     10563
     10561     10559     10562     10564     10561     10559     10562     10565
     10562     10565     10568     10569     10562     10565     10568     10570
     10563     10562     10565     10566     10563     10562     10565     10567
     10563     10562     10565     10568     10564     10562     10565     10566
     10564     10562     10565     10567     10564     10562     10565     10568
     10565     10568     10570     10571     10565     10568     10570     10572
     10566     10565     10568     10569     10566     10565     10568     10570
     10567     10565     10568     10569     10567     10565     10568     10570
     10568     10570     10572     10573     10568     10570     10572     10574
     10568     10570     10572     10575     10569     10568     10570     10571
     10569     10568     10570     10572     10570     10572     10575     10576
     10570     10572     10575     10577     10570     10572     10575     10578
     10571     10570     10572     10573     10571     10570     10572     10574
     10571     10570     10572     10575     10572     10575     10578     10579
     10572     10575     10578     10580     10572     10575     10578     10581
     10573     10572     10575     10576     10573     10572     10575     10577
     10573     10572     10575     10578     10574     10572     10575     10576
     10574     10572     10575     10577     10574     10572     10575     10578
     10575     10578     10581     10582     10575     10578     10581     10583
     10575     10578     10581     10584     10576     10575     10578     10579
     10576     10575     10578     10580     10576     10575     10578     10581
     10577     10575     10578     10579     10577     10575     10578     10580
     10577     10575     10578     10581     10578     10581     10584     10585
     10578     10581     10584     10586     10578     10581     10584     10587
     10579     10578     10581     10582     10579     10578     10581     10583
     10579     10578     10581     10584     10580     10578     10581     10582
     10580     10578     10581     10583     10580     10578     10581     10584
     10581     10584     10587     10588     10581     10584     10587     10589
     10581     10584     10587     10590     10582     10581     10584     10585
     10582     10581     10584     10586     10582     10581     10584     10587
     10583     10581     10584     10585     10583     10581     10584     10586
     10583     10581     10584     10587     10584     10587     10590     10591
     10584     10587     10590     10592     10584     10587     10590     10593
     10585     10584     10587     10588     10585     10584     10587     10589
     10585     10584     10587     10590     10586     10584     10587     10588
     10586     10584     10587     10589     10586     10584     10587     10590
     10587     10590     10593     10594     10587     10590     10593     10595
     10587     10590     10593     10596     10588     10587     10590     10591
     10588     10587     10590     10592     10588     10587     10590     10593
     10589     10587     10590     10591     10589     10587     10590     10592
     10589     10587     10590     10593     10591     10590     10593     10594
     10591     10590     10593     10595     10591     10590     10593     10596
     10592     10590     10593     10594     10592     10590     10593     10595
     10592     10590     10593     10596     10597     10598     10613     10614
     10597     10598     10613     10615     10597     10598     10613     10619
     10598     10597     10601     10602     10598     10597     10601     10603
     10598     10597     10601     10604     10598     10597     10605     10606
     10598     10597     10605     10607     10598     10597     10605     10608
     10598     10597     10609     10610     10598     10597     10609     10611
     10598     10597     10609     10612     10598     10613     10619     10616
     10599     10598     10597     10601     10599     10598     10597     10605
     10599     10598     10597     10609     10599     10598     10613     10614
     10599     10598     10613     10615     10599     10598     10613     10619
     10600     10598     10597     10601     10600     10598     10597     10605
     10600     10598     10597     10609     10600     10598     10613     10614
     10600     10598     10613     10615     10600     10598     10613     10619
     10601     10597     10598     10613     10601     10597     10605     10606
     10601     10597     10605     10607     10601     10597     10605     10608
     10601     10597     10609     10610     10601     10597     10609     10611
     10601     10597     10609     10612     10602     10601     10597     10605
     10602     10601     10597     10609     10603     10601     10597     10605
     10603     10601     10597     10609     10604     10601     10597     10605
     10604     10601     10597     10609     10605     10597     10598     10613
     10605     10597     10609     10610     10605     10597     10609     10611
     10605     10597     10609     10612     10606     10605     10597     10609
     10607     10605     10597     10609     10608     10605     10597     10609
     10609     10597     10598     10613     10613     10619     10616     10617
     10613     10619     10616     10618     10613     10619     10616     10620
     10614     10613     10619     10616     10615     10613     10619     10616
     10616     10620     10621     10622     10616     10620     10621     10623
     10616     10620     10621     10624     10617     10616     10620     10621
     10618     10616     10620     10621     10619     10616     10620     10621
     10620     10621     10624     10625     10620     10621     10624     10626
     10620     10621     10624     10632     10621     10624     10626     10627
     10621     10624     10632     10633     10621     10624     10632     10634
     10621     10624     10632     10635     10622     10621     10624     10625
     10622     10621     10624     10626     10622     10621     10624     10632
     10623     10621     10624     10625     10623     10621     10624     10626
     10623     10621     10624     10632     10624     10626     10627     10628
     10624     10626     10627     10629     10624     10632     10635     10636
     10625     10624     10626     10627     10625     10624     10632     10633
     10625     10624     10632     10634     10625     10624     10632     10635
     10626     10624     10632     10633     10626     10624     10632     10634
     10626     10624     10632     10635     10626     10627     10629     10630
     10626     10627     10629     10631     10626     10627     10629     10641
     10627     10626     10624     10632     10627     10629     10641     10642
     10627     10629     10641     10643     10627     10629     10641     10644
     10628     10627     10629     10630     10628     10627     10629     10631
     10628     10627     10629     10641     10629     10641     10644     10645
     10629     10641     10644     10646     10629     10641     10644     10647
     10630     10629     10641     10642     10630     10629     10641     10643
     10630     10629     10641     10644     10631     10629     10641     10642
     10631     10629     10641     10643     10631     10629     10641     10644
     10632     10635     10636     10637     10632     10635     10636     10638
     10633     10632     10635     10636     10634     10632     10635     10636
     10635     10636     10638     10639     10635     10636     10638     10640
     10635     10636     10638     10688     10636     10638     10688     10689
     10636     10638     10688     10690     10636     10638     10688     10691
     10637     10636     10638     10639     10637     10636     10638     10640
     10637     10636     10638     10688     10638     10688     10691     10692
     10638     10688     10691     10693     10638     10688     10691     10694
     10639     10638     10688     10689     10639     10638     10688     10690
     10639     10638     10688     10691     10640     10638     10688     10689
     10640     10638     10688     10690     10640     10638     10688     10691
     10641     10644     10647     10648     10641     10644     10647     10649
     10641     10644     10647     10650     10642     10641     10644     10645
     10642     10641     10644     10646     10642     10641     10644     10647
     10643     10641     10644     10645     10643     10641     10644     10646
     10643     10641     10644     10647     10644     10647     10650     10651
     10644     10647     10650     10652     10644     10647     10650     10653
     10645     10644     10647     10648     10645     10644     10647     10649
     10645     10644     10647     10650     10646     10644     10647     10648
     10646     10644     10647     10649     10646     10644     10647     10650
     10647     10650     10653     10654     10647     10650     10653     10655
     10647     10650     10653     10656     10648     10647     10650     10651
     10648     10647     10650     10652     10648     10647     10650     10653
     10649     10647     10650     10651     10649     10647     10650     10652
     10649     10647     10650     10653     10650     10653     10656     10657
     10650     10653     10656     10658     10650     10653     10656     10659
     10651     10650     10653     10654     10651     10650     10653     10655
     10651     10650     10653     10656     10652     10650     10653     10654
     10652     10650     10653     10655     10652     10650     10653     10656
     10653     10656     10659     10660     10653     10656     10659     10661
     10654     10653     10656     10657     10654     10653     10656     10658
     10654     10653     10656     10659     10655     10653     10656     10657
     10655     10653     10656     10658     10655     10653     10656     10659
     10656     10659     10661     10662     10656     10659     10661     10663
     10657     10656     10659     10660     10657     10656     10659     10661
     10658     10656     10659     10660     10658     10656     10659     10661
     10659     10661     10663     10664     10659     10661     10663     10665
     10659     10661     10663     10666     10660     10659     10661     10662
     10660     10659     10661     10663     10661     10663     10666     10667
     10661     10663     10666     10668     10661     10663     10666     10669
     10662     10661     10663     10664     10662     10661     10663     10665
     10662     10661     10663     10666     10663     10666     10669     10670
     10663     10666     10669     10671     10663     10666     10669     10672
     10664     10663     10666     10667     10664     10663     10666     10668
     10664     10663     10666     10669     10665     10663     10666     10667
     10665     10663     10666     10668     10665     10663     10666     10669
     10666     10669     10672     10673     10666     10669     10672     10674
     10666     10669     10672     10675     10667     10666     10669     10670
     10667     10666     10669     10671     10667     10666     10669     10672
     10668     10666     10669     10670     10668     10666     10669     10671
     10668     10666     10669     10672     10669     10672     10675     10676
     10669     10672     10675     10677     10669     10672     10675     10678
     10670     10669     10672     10673     10670     10669     10672     10674
     10670     10669     10672     10675     10671     10669     10672     10673
     10671     10669     10672     10674     10671     10669     10672     10675
     10672     10675     10678     10679     10672     10675     10678     10680
     10672     10675     10678     10681     10673     10672     10675     10676
     10673     10672     10675     10677     10673     10672     10675     10678
     10674     10672     10675     10676     10674     10672     10675     10677
     10674     10672     10675     10678     10675     10678     10681     10682
     10675     10678     10681     10683     10675     10678     10681     10684
     10676     10675     10678     10679     10676     10675     10678     10680
     10676     10675     10678     10681     10677     10675     10678     10679
     10677     10675     10678     10680     10677     10675     10678     10681
     10678     10681     10684     10685     10678     10681     10684     10686
     10678     10681     10684     10687     10679     10678     10681     10682
     10679     10678     10681     10683     10679     10678     10681     10684
     10680     10678     10681     10682     10680     10678     10681     10683
     10680     10678     10681     10684     10682     10681     10684     10685
     10682     10681     10684     10686     10682     10681     10684     10687
     10683     10681     10684     10685     10683     10681     10684     10686
     10683     10681     10684     10687     10688     10691     10694     10695
     10688     10691     10694     10696     10688     10691     10694     10697
     10689     10688     10691     10692     10689     10688     10691     10693
     10689     10688     10691     10694     10690     10688     10691     10692
     10690     10688     10691     10693     10690     10688     10691     10694
     10691     10694     10697     10698     10691     10694     10697     10699
     10691     10694     10697     10700     10692     10691     10694     10695
     10692     10691     10694     10696     10692     10691     10694     10697
     10693     10691     10694     10695     10693     10691     10694     10696
     10693     10691     10694     10697     10694     10697     10700     10701
     10694     10697     10700     10702     10694     10697     10700     10703
     10695     10694     10697     10698     10695     10694     10697     10699
     10695     10694     10697     10700     10696     10694     10697     10698
     10696     10694     10697     10699     10696     10694     10697     10700
     10697     10700     10703     10704     10697     10700     10703     10705
     10697     10700     10703     10706     10698     10697     10700     10701
     10698     10697     10700     10702     10698     10697     10700     10703
     10699     10697     10700     10701     10699     10697     10700     10702
     10699     10697     10700     10703     10700     10703     10706     10707
     10700     10703     10706     10708     10701     10700     10703     10704
     10701     10700     10703     10705     10701     10700     10703     10706
     10702     10700     10703     10704     10702     10700     10703     10705
     10702     10700     10703     10706     10703     10706     10708     10709
     10703     10706     10708     10710     10704     10703     10706     10707
     10704     10703     10706     10708     10705     10703     10706     10707
     10705     10703     10706     10708     10706     10708     10710     10711
     10706     10708     10710     10712     10706     10708     10710     10713
     10707     10706     10708     10709     10707     10706     10708     10710
     10708     10710     10713     10714     10708     10710     10713     10715
     10708     10710     10713     10716     10709     10708     10710     10711
     10709     10708     10710     10712     10709     10708     10710     10713
     10710     10713     10716     10717     10710     10713     10716     10718
     10710     10713     10716     10719     10711     10710     10713     10714
     10711     10710     10713     10715     10711     10710     10713     10716
     10712     10710     10713     10714     10712     10710     10713     10715
     10712     10710     10713     10716     10713     10716     10719     10720
     10713     10716     10719     10721     10713     10716     10719     10722
     10714     10713     10716     10717     10714     10713     10716     10718
     10714     10713     10716     10719     10715     10713     10716     10717
     10715     10713     10716     10718     10715     10713     10716     10719
     10716     10719     10722     10723     10716     10719     10722     10724
     10716     10719     10722     10725     10717     10716     10719     10720
     10717     10716     10719     10721     10717     10716     10719     10722
     10718     10716     10719     10720     10718     10716     10719     10721
     10718     10716     10719     10722     10719     10722     10725     10726
     10719     10722     10725     10727     10719     10722     10725     10728
     10720     10719     10722     10723     10720     10719     10722     10724
     10720     10719     10722     10725     10721     10719     10722     10723
     10721     10719     10722     10724     10721     10719     10722     10725
     10722     10725     10728     10729     10722     10725     10728     10730
     10722     10725     10728     10731     10723     10722     10725     10726
     10723     10722     10725     10727     10723     10722     10725     10728
     10724     10722     10725     10726     10724     10722     10725     10727
     10724     10722     10725     10728     10725     10728     10731     10732
     10725     10728     10731     10733     10725     10728     10731     10734
     10726     10725     10728     10729     10726     10725     10728     10730
     10726     10725     10728     10731     10727     10725     10728     10729
     10727     10725     10728     10730     10727     10725     10728     10731
     10729     10728     10731     10732     10729     10728     10731     10733
     10729     10728     10731     10734     10730     10728     10731     10732
     10730     10728     10731     10733     10730     10728     10731     10734
     10735     10739     10742     10743     10735     10739     10742     10744
     10735     10739     10742     10749     10736     10735     10739     10740
     10736     10735     10739     10741     10736     10735     10739     10742
     10737     10735     10739     10740     10737     10735     10739     10741
     10737     10735     10739     10742     10738     10735     10739     10740
     10738     10735     10739     10741     10738     10735     10739     10742
     10739     10742     10749     10745     10740     10739     10742     10743
     10740     10739     10742     10744     10740     10739     10742     10749
     10741     10739     10742     10743     10741     10739     10742     10744
     10741     10739     10742     10749     10742     10749     10745     10746
     10742     10749     10745     10747     10742     10749     10745     10748
     10743     10742     10749     10745     10744     10742     10749     10745
     10745     10748     10750     10751     10745     10748     10750     10752
     10745     10748     10750     10753     10746     10745     10748     10750
     10747     10745     10748     10750     10748     10750     10753     10754
     10748     10750     10753     10755     10748     10750     10753     10761
     10749     10745     10748     10750     10750     10753     10755     10756
     10750     10753     10761     10762     10750     10753     10761     10763
     10750     10753     10761     10764     10751     10750     10753     10754
     10751     10750     10753     10755     10751     10750     10753     10761
     10752     10750     10753     10754     10752     10750     10753     10755
     10752     10750     10753     10761     10753     10755     10756     10757
     10753     10755     10756     10758     10753     10761     10764     10765
     10754     10753     10755     10756     10754     10753     10761     10762
     10754     10753     10761     10763     10754     10753     10761     10764
     10755     10753     10761     10762     10755     10753     10761     10763
     10755     10753     10761     10764     10755     10756     10758     10759
     10755     10756     10758     10760     10755     10756     10758     10770
     10756     10755     10753     10761     10756     10758     10770     10771
     10756     10758     10770     10772     10756     10758     10770     10773
     10757     10756     10758     10759     10757     10756     10758     10760
     10757     10756     10758     10770     10758     10770     10773     10774
     10758     10770     10773     10775     10758     10770     10773     10776
     10759     10758     10770     10771     10759     10758     10770     10772
     10759     10758     10770     10773     10760     10758     10770     10771
     10760     10758     10770     10772     10760     10758     10770     10773
     10761     10764     10765     10766     10761     10764     10765     10767
     10762     10761     10764     10765     10763     10761     10764     10765
     10764     10765     10767     10768     10764     10765     10767     10769
     10764     10765     10767     10817     10765     10767     10817     10818
     10765     10767     10817     10819     10765     10767     10817     10820
     10766     10765     10767     10768     10766     10765     10767     10769
     10766     10765     10767     10817     10767     10817     10820     10821
     10767     10817     10820     10822     10767     10817     10820     10823
     10768     10767     10817     10818     10768     10767     10817     10819
     10768     10767     10817     10820     10769     10767     10817     10818
     10769     10767     10817     10819     10769     10767     10817     10820
     10770     10773     10776     10777     10770     10773     10776     10778
     10770     10773     10776     10779     10771     10770     10773     10774
     10771     10770     10773     10775     10771     10770     10773     10776
     10772     10770     10773     10774     10772     10770     10773     10775
     10772     10770     10773     10776     10773     10776     10779     10780
     10773     10776     10779     10781     10773     10776     10779     10782
     10774     10773     10776     10777     10774     10773     10776     10778
     10774     10773     10776     10779     10775     10773     10776     10777
     10775     10773     10776     10778     10775     10773     10776     10779
     10776     10779     10782     10783     10776     10779     10782     10784
     10776     10779     10782     10785     10777     10776     10779     10780
     10777     10776     10779     10781     10777     10776     10779     10782
     10778     10776     10779     10780     10778     10776     10779     10781
     10778     10776     10779     10782     10779     10782     10785     10786
     10779     10782     10785     10787     10779     10782     10785     10788
     10780     10779     10782     10783     10780     10779     10782     10784
     10780     10779     10782     10785     10781     10779     10782     10783
     10781     10779     10782     10784     10781     10779     10782     10785
     10782     10785     10788     10789     10782     10785     10788     10790
     10783     10782     10785     10786     10783     10782     10785     10787
     10783     10782     10785     10788     10784     10782     10785     10786
     10784     10782     10785     10787     10784     10782     10785     10788
     10785     10788     10790     10791     10785     10788     10790     10792
     10786     10785     10788     10789     10786     10785     10788     10790
     10787     10785     10788     10789     10787     10785     10788     10790
     10788     10790     10792     10793     10788     10790     10792     10794
     10788     10790     10792     10795     10789     10788     10790     10791
     10789     10788     10790     10792     10790     10792     10795     10796
     10790     10792     10795     10797     10790     10792     10795     10798
     10791     10790     10792     10793     10791     10790     10792     10794
     10791     10790     10792     10795     10792     10795     10798     10799
     10792     10795     10798     10800     10792     10795     10798     10801
     10793     10792     10795     10796     10793     10792     10795     10797
     10793     10792     10795     10798     10794     10792     10795     10796
     10794     10792     10795     10797     10794     10792     10795     10798
     10795     10798     10801     10802     10795     10798     10801     10803
     10795     10798     10801     10804     10796     10795     10798     10799
     10796     10795     10798     10800     10796     10795     10798     10801
     10797     10795     10798     10799     10797     10795     10798     10800
     10797     10795     10798     10801     10798     10801     10804     10805
     10798     10801     10804     10806     10798     10801     10804     10807
     10799     10798     10801     10802     10799     10798     10801     10803
     10799     10798     10801     10804     10800     10798     10801     10802
     10800     10798     10801     10803     10800     10798     10801     10804
     10801     10804     10807     10808     10801     10804     10807     10809
     10801     10804     10807     10810     10802     10801     10804     10805
     10802     10801     10804     10806     10802     10801     10804     10807
     10803     10801     10804     10805     10803     10801     10804     10806
     10803     10801     10804     10807     10804     10807     10810     10811
     10804     10807     10810     10812     10804     10807     10810     10813
     10805     10804     10807     10808     10805     10804     10807     10809
     10805     10804     10807     10810     10806     10804     10807     10808
     10806     10804     10807     10809     10806     10804     10807     10810
     10807     10810     10813     10814     10807     10810     10813     10815
     10807     10810     10813     10816     10808     10807     10810     10811
     10808     10807     10810     10812     10808     10807     10810     10813
     10809     10807     10810     10811     10809     10807     10810     10812
     10809     10807     10810     10813     10811     10810     10813     10814
     10811     10810     10813     10815     10811     10810     10813     10816
     10812     10810     10813     10814     10812     10810     10813     10815
     10812     10810     10813     10816     10817     10820     10823     10824
     10817     10820     10823     10825     10817     10820     10823     10826
     10818     10817     10820     10821     10818     10817     10820     10822
     10818     10817     10820     10823     10819     10817     10820     10821
     10819     10817     10820     10822     10819     10817     10820     10823
     10820     10823     10826     10827     10820     10823     10826     10828
     10820     10823     10826     10829     10821     10820     10823     10824
     10821     10820     10823     10825     10821     10820     10823     10826
     10822     10820     10823     10824     10822     10820     10823     10825
     10822     10820     10823     10826     10823     10826     10829     10830
     10823     10826     10829     10831     10823     10826     10829     10832
     10824     10823     10826     10827     10824     10823     10826     10828
     10824     10823     10826     10829     10825     10823     10826     10827
     10825     10823     10826     10828     10825     10823     10826     10829
     10826     10829     10832     10833     10826     10829     10832     10834
     10826     10829     10832     10835     10827     10826     10829     10830
     10827     10826     10829     10831     10827     10826     10829     10832
     10828     10826     10829     10830     10828     10826     10829     10831
     10828     10826     10829     10832     10829     10832     10835     10836
     10829     10832     10835     10837     10830     10829     10832     10833
     10830     10829     10832     10834     10830     10829     10832     10835
     10831     10829     10832     10833     10831     10829     10832     10834
     10831     10829     10832     10835     10832     10835     10837     10838
     10832     10835     10837     10839     10833     10832     10835     10836
     10833     10832     10835     10837     10834     10832     10835     10836
     10834     10832     10835     10837     10835     10837     10839     10840
     10835     10837     10839     10841     10835     10837     10839     10842
     10836     10835     10837     10838     10836     10835     10837     10839
     10837     10839     10842     10843     10837     10839     10842     10844
     10837     10839     10842     10845     10838     10837     10839     10840
     10838     10837     10839     10841     10838     10837     10839     10842
     10839     10842     10845     10846     10839     10842     10845     10847
     10839     10842     10845     10848     10840     10839     10842     10843
     10840     10839     10842     10844     10840     10839     10842     10845
     10841     10839     10842     10843     10841     10839     10842     10844
     10841     10839     10842     10845     10842     10845     10848     10849
     10842     10845     10848     10850     10842     10845     10848     10851
     10843     10842     10845     10846     10843     10842     10845     10847
     10843     10842     10845     10848     10844     10842     10845     10846
     10844     10842     10845     10847     10844     10842     10845     10848
     10845     10848     10851     10852     10845     10848     10851     10853
     10845     10848     10851     10854     10846     10845     10848     10849
     10846     10845     10848     10850     10846     10845     10848     10851
     10847     10845     10848     10849     10847     10845     10848     10850
     10847     10845     10848     10851     10848     10851     10854     10855
     10848     10851     10854     10856     10848     10851     10854     10857
     10849     10848     10851     10852     10849     10848     10851     10853
     10849     10848     10851     10854     10850     10848     10851     10852
     10850     10848     10851     10853     10850     10848     10851     10854
     10851     10854     10857     10858     10851     10854     10857     10859
     10851     10854     10857     10860     10852     10851     10854     10855
     10852     10851     10854     10856     10852     10851     10854     10857
     10853     10851     10854     10855     10853     10851     10854     10856
     10853     10851     10854     10857     10854     10857     10860     10861
     10854     10857     10860     10862     10854     10857     10860     10863
     10855     10854     10857     10858     10855     10854     10857     10859
     10855     10854     10857     10860     10856     10854     10857     10858
     10856     10854     10857     10859     10856     10854     10857     10860
     10858     10857     10860     10861     10858     10857     10860     10862
     10858     10857     10860     10863     10859     10857     10860     10861
     10859     10857     10860     10862     10859     10857     10860     10863
     10864     10877     10880     10881     10864     10877     10880     10882
     10864     10877     10880     10887     10865     10864     10869     10870
     10865     10864     10869     10871     10865     10864     10869     10872
     10865     10864     10873     10874     10865     10864     10873     10875
     10865     10864     10873     10876     10865     10864     10877     10878
     10865     10864     10877     10879     10865     10864     10877     10880
     10866     10865     10864     10869     10866     10865     10864     10873
     10866     10865     10864     10877     10867     10865     10864     10869
     10867     10865     10864     10873     10867     10865     10864     10877
     10868     10865     10864     10869     10868     10865     10864     10873
     10868     10865     10864     10877     10869     10864     10873     10874
     10869     10864     10873     10875     10869     10864     10873     10876
     10869     10864     10877     10878     10869     10864     10877     10879
     10869     10864     10877     10880     10870     10869     10864     10873
     10870     10869     10864     10877     10871     10869     10864     10873
     10871     10869     10864     10877     10872     10869     10864     10873
     10872     10869     10864     10877     10873     10864     10877     10878
     10873     10864     10877     10879     10873     10864     10877     10880
     10874     10873     10864     10877     10875     10873     10864     10877
     10876     10873     10864     10877     10877     10880     10887     10883
     10878     10877     10880     10881     10878     10877     10880     10882
     10878     10877     10880     10887     10879     10877     10880     10881
     10879     10877     10880     10882     10879     10877     10880     10887
     10880     10887     10883     10884     10880     10887     10883     10885
     10880     10887     10883     10886     10881     10880     10887     10883
     10882     10880     10887     10883     10883     10886     10888     10889
     10883     10886     10888     10890     10883     10886     10888     10893
     10884     10883     10886     10888     10885     10883     10886     10888
     10886     10888     10893     10891     10886     10888     10893     10894
     10886     10888     10893     10895     10887     10883     10886     10888
     10888     10893     10891     10892     10888     10893     10891     10943
     10888     10893     10895     10896     10888     10893     10895     10897
     10888     10893     10895     10899     10889     10888     10893     10891
     10889     10888     10893     10894     10889     10888     10893     10895
     10890     10888     10893     10891     10890     10888     10893     10894
     10890     10888     10893     10895     10891     10893     10895     10896
     10891     10893     10895     10897     10891     10893     10895     10899
     10891     10943     10945     10946     10891     10943     10945     10947
     10891     10943     10945     10948     10892     10891     10893     10894
     10892     10891     10893     10895     10892     10891     10943     10944
     10892     10891     10943     10945     10893     10891     10943     10944
     10893     10891     10943     10945     10893     10895     10897     10898
     10893     10895     10899     10900     10893     10895     10899     10901
     10894     10893     10891     10943     10894     10893     10895     10896
     10894     10893     10895     10897     10894     10893     10895     10899
     10895     10893     10891     10943     10895     10899     10901     10902
     10895     10899     10901     10903     10896     10895     10897     10898
     10896     10895     10899     10900     10896     10895     10899     10901
     10897     10895     10899     10900     10897     10895     10899     10901
     10898     10897     10895     10899     10899     10901     10903     10904
     10899     10901     10903     10905     10899     10901     10903     10906
     10900     10899     10901     10902     10900     10899     10901     10903
     10901     10903     10906     10907     10901     10903     10906     10908
     10901     10903     10906     10909     10902     10901     10903     10904
     10902     10901     10903     10905     10902     10901     10903     10906
     10903     10906     10909     10910     10903     10906     10909     10911
     10903     10906     10909     10912     10904     10903     10906     10907
     10904     10903     10906     10908     10904     10903     10906     10909
     10905     10903     10906     10907     10905     10903     10906     10908
     10905     10903     10906     10909     10906     10909     10912     10913
     10906     10909     10912     10914     10906     10909     10912     10915
     10907     10906     10909     10910     10907     10906     10909     10911
     10907     10906     10909     10912     10908     10906     10909     10910
     10908     10906     10909     10911     10908     10906     10909     10912
     10909     10912     10915     10916     10909     10912     10915     10917
     10909     10912     10915     10918     10910     10909     10912     10913
     10910     10909     10912     10914     10910     10909     10912     10915
     10911     10909     10912     10913     10911     10909     10912     10914
     10911     10909     10912     10915     10912     10915     10918     10919
     10912     10915     10918     10920     10912     10915     10918     10921
     10913     10912     10915     10916     10913     10912     10915     10917
     10913     10912     10915     10918     10914     10912     10915     10916
     10914     10912     10915     10917     10914     10912     10915     10918
     10915     10918     10921     10922     10915     10918     10921     10923
     10915     10918     10921     10924     10916     10915     10918     10919
     10916     10915     10918     10920     10916     10915     10918     10921
     10917     10915     10918     10919     10917     10915     10918     10920
     10917     10915     10918     10921     10918     10921     10924     10925
     10918     10921     10924     10926     10918     10921     10924     10927
     10919     10918     10921     10922     10919     10918     10921     10923
     10919     10918     10921     10924     10920     10918     10921     10922
     10920     10918     10921     10923     10920     10918     10921     10924
     10921     10924     10927     10928     10921     10924     10927     10929
     10921     10924     10927     10930     10922     10921     10924     10925
     10922     10921     10924     10926     10922     10921     10924     10927
     10923     10921     10924     10925     10923     10921     10924     10926
     10923     10921     10924     10927     10924     10927     10930     10931
     10924     10927     10930     10932     10924     10927     10930     10933
     10925     10924     10927     10928     10925     10924     10927     10929
     10925     10924     10927     10930     10926     10924     10927     10928
     10926     10924     10927     10929     10926     10924     10927     10930
     10927     10930     10933     10934     10927     10930     10933     10935
     10927     10930     10933     10936     10928     10927     10930     10931
     10928     10927     10930     10932     10928     10927     10930     10933
     10929     10927     10930     10931     10929     10927     10930     10932
     10929     10927     10930     10933     10930     10933     10936     10937
     10930     10933     10936     10938     10930     10933     10936     10939
     10931     10930     10933     10934     10931     10930     10933     10935
     10931     10930     10933     10936     10932     10930     10933     10934
     10932     10930     10933     10935     10932     10930     10933     10936
     10933     10936     10939     10940     10933     10936     10939     10941
     10933     10936     10939     10942     10934     10933     10936     10937
     10934     10933     10936     10938     10934     10933     10936     10939
     10935     10933     10936     10937     10935     10933     10936     10938
     10935     10933     10936     10939     10937     10936     10939     10940
     10937     10936     10939     10941     10937     10936     10939     10942
     10938     10936     10939     10940     10938     10936     10939     10941
     10938     10936     10939     10942     10943     10945     10948     10949
     10943     10945     10948     10950     10943     10945     10948     10951
     10944     10943     10945     10946     10944     10943     10945     10947
     10944     10943     10945     10948     10945     10948     10951     10952
     10945     10948     10951     10953     10945     10948     10951     10954
     10946     10945     10948     10949     10946     10945     10948     10950
     10946     10945     10948     10951     10947     10945     10948     10949
     10947     10945     10948     10950     10947     10945     10948     10951
     10948     10951     10954     10955     10948     10951     10954     10956
     10948     10951     10954     10957     10949     10948     10951     10952
     10949     10948     10951     10953     10949     10948     10951     10954
     10950     10948     10951     10952     10950     10948     10951     10953
     10950     10948     10951     10954     10951     10954     10957     10958
     10951     10954     10957     10959     10951     10954     10957     10960
     10952     10951     10954     10955     10952     10951     10954     10956
     10952     10951     10954     10957     10953     10951     10954     10955
     10953     10951     10954     10956     10953     10951     10954     10957
     10954     10957     10960     10961     10954     10957     10960     10962
     10954     10957     10960     10963     10955     10954     10957     10958
     10955     10954     10957     10959     10955     10954     10957     10960
     10956     10954     10957     10958     10956     10954     10957     10959
     10956     10954     10957     10960     10957     10960     10963     10964
     10957     10960     10963     10965     10957     10960     10963     10966
     10958     10957     10960     10961     10958     10957     10960     10962
     10958     10957     10960     10963     10959     10957     10960     10961
     10959     10957     10960     10962     10959     10957     10960     10963
     10960     10963     10966     10967     10960     10963     10966     10968
     10960     10963     10966     10969     10961     10960     10963     10964
     10961     10960     10963     10965     10961     10960     10963     10966
     10962     10960     10963     10964     10962     10960     10963     10965
     10962     10960     10963     10966     10963     10966     10969     10970
     10963     10966     10969     10971     10963     10966     10969     10972
     10964     10963     10966     10967     10964     10963     10966     10968
     10964     10963     10966     10969     10965     10963     10966     10967
     10965     10963     10966     10968     10965     10963     10966     10969
     10966     10969     10972     10973     10966     10969     10972     10974
     10966     10969     10972     10975     10967     10966     10969     10970
     10967     10966     10969     10971     10967     10966     10969     10972
     10968     10966     10969     10970     10968     10966     10969     10971
     10968     10966     10969     10972     10969     10972     10975     10976
     10969     10972     10975     10977     10969     10972     10975     10978
     10970     10969     10972     10973     10970     10969     10972     10974
     10970     10969     10972     10975     10971     10969     10972     10973
     10971     10969     10972     10974     10971     10969     10972     10975
     10972     10975     10978     10979     10972     10975     10978     10980
     10972     10975     10978     10981     10973     10972     10975     10976
     10973     10972     10975     10977     10973     10972     10975     10978
     10974     10972     10975     10976     10974     10972     10975     10977
     10974     10972     10975     10978     10975     10978     10981     10982
     10975     10978     10981     10983     10975     10978     10981     10984
     10976     10975     10978     10979     10976     10975     10978     10980
     10976     10975     10978     10981     10977     10975     10978     10979
     10977     10975     10978     10980     10977     10975     10978     10981
     10978     10981     10984     10985     10978     10981     10984     10986
     10978     10981     10984     10987     10979     10978     10981     10982
     10979     10978     10981     10983     10979     10978     10981     10984
     10980     10978     10981     10982     10980     10978     10981     10983
     10980     10978     10981     10984     10981     10984     10987     10988
     10981     10984     10987     10989     10981     10984     10987     10990
     10982     10981     10984     10985     10982     10981     10984     10986
     10982     10981     10984     10987     10983     10981     10984     10985
     10983     10981     10984     10986     10983     10981     10984     10987
     10984     10987     10990     10991     10984     10987     10990     10992
     10984     10987     10990     10993     10985     10984     10987     10988
     10985     10984     10987     10989     10985     10984     10987     10990
     10986     10984     10987     10988     10986     10984     10987     10989
     10986     10984     10987     10990     10987     10990     10993     10994
     10987     10990     10993     10995     10987     10990     10993     10996
     10988     10987     10990     10991     10988     10987     10990     10992
     10988     10987     10990     10993     10989     10987     10990     10991
     10989     10987     10990     10992     10989     10987     10990     10993
     10990     10993     10996     10997     10990     10993     10996     10998
     10990     10993     10996     10999     10991     10990     10993     10994
     10991     10990     10993     10995     10991     10990     10993     10996
     10992     10990     10993     10994     10992     10990     10993     10995
     10992     10990     10993     10996     10993     10996     10999     11000
     10993     10996     10999     11001     10993     10996     10999     11002
     10994     10993     10996     10997     10994     10993     10996     10998
     10994     10993     10996     10999     10995     10993     10996     10997
     10995     10993     10996     10998     10995     10993     10996     10999
     10996     10999     11002     11003     10996     10999     11002     11004
     10996     10999     11002     11005     10997     10996     10999     11000
     10997     10996     10999     11001     10997     10996     10999     11002
     10998     10996     10999     11000     10998     10996     10999     11001
     10998     10996     10999     11002     10999     11002     11005     11006
     10999     11002     11005     11007     10999     11002     11005     11008
     11000     10999     11002     11003     11000     10999     11002     11004
     11000     10999     11002     11005     11001     10999     11002     11003
     11001     10999     11002     11004     11001     10999     11002     11005
     11002     11005     11008     11009     11002     11005     11008     11010
     11002     11005     11008     11011     11003     11002     11005     11006
     11003     11002     11005     11007     11003     11002     11005     11008
     11004     11002     11005     11006     11004     11002     11005     11007
     11004     11002     11005     11008     11006     11005     11008     11009
     11006     11005     11008     11010     11006     11005     11008     11011
     11007     11005     11008     11009     11007     11005     11008     11010
     11007     11005     11008     11011     11012     11016     11019     11020
     11012     11016     11019     11050     11012     11058     11055     11050
     11012     11058     11055     11056     11012     11058     11055     11057
     11013     11012     11014     11015     11013     11012     11016     11017
     11013     11012     11016     11018     11013     11012     11016     11019
     11013     11012     11058     11055     11013     11012     11058     11059
     11013     11012     11058     11060     11014     11012     11016     11017
     11014     11012     11016     11018     11014     11012     11016     11019
     11014     11012     11058     11055     11014     11012     11058     11059
     11014     11012     11058     11060     11015     11014     11012     11016
     11015     11014     11012     11058     11016     11012     11058     11055
     11016     11012     11058     11059     11016     11012     11058     11060
     11016     11019     11020     11021     11016     11019     11020     11022
     11016     11019     11050     11048     11016     11019     11050     11051
     11016     11019     11050     11055     11017     11016     11012     11058
     11017     11016     11019     11020     11017     11016     11019     11050
     11018     11016     11012     11058     11018     11016     11019     11020
     11018     11016     11019     11050     11019     11016     11012     11058
     11019     11020     11022     11023     11019     11020     11022     11024
     11019     11020     11022     11025     11019     11050     11048     11025
     11019     11050     11048     11045     11019     11050     11048     11049
     11019     11050     11051     11052     11019     11050     11051     11053
     11019     11050     11051     11054     11019     11050     11055     11056
     11019     11050     11055     11057     11019     11050     11055     11058
     11020     11019     11050     11048     11020     11019     11050     11051
     11020     11019     11050     11055     11020     11022     11025     11026
     11020     11022     11025     11027     11020     11022     11025     11048
     11021     11020     11019     11050     11021     11020     11022     11023
     11021     11020     11022     11024     11021     11020     11022     11025
     11022     11020     11019     11050     11022     11025     11027     11028
     11022     11025     11027     11029     11022     11025     11027     11037
     11022     11025     11048     11045     11022     11025     11048     11049
     11022     11025     11048     11050     11023     11022     11025     11026
     11023     11022     11025     11027     11023     11022     11025     11048
     11024     11022     11025     11026     11024     11022     11025     11027
     11024     11022     11025     11048     11025     11027     11029     11030
     11025     11027     11029     11031     11025     11027     11029     11032
     11025     11027     11037     11035     11025     11027     11037     11038
     11025     11027     11037     11042     11025     11048     11045     11042
     11025     11048     11045     11046     11025     11048     11045     11047
     11025     11048     11050     11051     11025     11048     11050     11055
     11026     11025     11027     11028     11026     11025     11027     11029
     11026     11025     11027     11037     11026     11025     11048     11045
     11026     11025     11048     11049     11026     11025     11048     11050
     11027     11025     11048     11045     11027     11025     11048     11049
     11027     11025     11048     11050     11027     11029     11032     11033
     11027     11029     11032     11034     11027     11029     11032     11035
     11027     11037     11035     11032     11027     11037     11035     11036
     11027     11037     11035     11061     11027     11037     11038     11039
     11027     11037     11038     11040     11027     11037     11038     11041
     11027     11037     11042     11043     11027     11037     11042     11044
     11027     11037     11042     11045     11028     11027     11025     11048
     11028     11027     11029     11030     11028     11027     11029     11031
     11028     11027     11029     11032     11028     11027     11037     11035
     11028     11027     11037     11038     11028     11027     11037     11042
     11029     11027     11025     11048     11029     11027     11037     11035
     11029     11027     11037     11038     11029     11027     11037     11042
     11029     11032     11035     11036     11029     11032     11035     11037
     11029     11032     11035     11061     11030     11029     11027     11037
     11030     11029     11032     11033     11030     11029     11032     11034
     11030     11029     11032     11035     11031     11029     11027     11037
     11031     11029     11032     11033     11031     11029     11032     11034
     11031     11029     11032     11035     11032     11029     11027     11037
     11032     11035     11037     11038     11032     11035     11037     11042
     11032     11035     11061     11062     11032     11035     11061     11063
     11032     11035     11061     11067     11033     11032     11035     11036
     11033     11032     11035     11037     11033     11032     11035     11061
     11034     11032     11035     11036     11034     11032     11035     11037
     11034     11032     11035     11061     11035     11037     11038     11039
     11035     11037     11038     11040     11035     11037     11038     11041
     11035     11037     11042     11043     11035     11037     11042     11044
     11035     11037     11042     11045     11035     11061     11063     11064
     11035     11061     11063     11065     11035     11061     11063     11066
     11035     11061     11067     11068     11035     11061     11067     11069
     11035     11061     11067     11070     11036     11035     11037     11038
     11036     11035     11037     11042     11036     11035     11061     11062
     11036     11035     11061     11063     11036     11035     11061     11067
     11037     11027     11025     11048     11037     11035     11061     11062
     11037     11035     11061     11063     11037     11035     11061     11067
     11037     11042     11045     11046     11037     11042     11045     11047
     11037     11042     11045     11048     11038     11037     11035     11061
     11038     11037     11042     11043     11038     11037     11042     11044
     11038     11037     11042     11045     11039     11038     11037     11042
     11040     11038     11037     11042     11041     11038     11037     11042
     11042     11037     11035     11061     11042     11045     11048     11049
     11042     11045     11048     11050     11043     11042     11045     11046
     11043     11042     11045     11047     11043     11042     11045     11048
     11044     11042     11045     11046     11044     11042     11045     11047
     11044     11042     11045     11048     11045     11048     11050     11051
     11045     11048     11050     11055     11046     11045     11048     11049
     11046     11045     11048     11050     11047     11045     11048     11049
     11047     11045     11048     11050     11048     11050     11051     11052
     11048     11050     11051     11053     11048     11050     11051     11054
     11048     11050     11055     11056     11048     11050     11055     11057
     11048     11050     11055     11058     11049     11048     11050     11051
     11049     11048     11050     11055     11050     11055     11058     11059
     11050     11055     11058     11060     11051     11050     11055     11056
     11051     11050     11055     11057     11051     11050     11055     11058
     11052     11051     11050     11055     11053     11051     11050     11055
     11054     11051     11050     11055     11056     11055     11058     11059
     11056     11055     11058     11060     11057     11055     11058     11059
     11057     11055     11058     11060     11061     11067     11070     11071
     11061     11067     11070     11072     11061     11067     11070     11073
     11062     11061     11063     11064     11062     11061     11063     11065
     11062     11061     11063     11066     11062     11061     11067     11068
     11062     11061     11067     11069     11062     11061     11067     11070
     11063     11061     11067     11068     11063     11061     11067     11069
     11063     11061     11067     11070     11064     11063     11061     11067
     11065     11063     11061     11067     11066     11063     11061     11067
     11067     11070     11073     11074     11067     11070     11073     11075
     11067     11070     11073     11076     11068     11067     11070     11071
     11068     11067     11070     11072     11068     11067     11070     11073
     11069     11067     11070     11071     11069     11067     11070     11072
     11069     11067     11070     11073     11070     11073     11076     11077
     11070     11073     11076     11078     11070     11073     11076     11082
     11071     11070     11073     11074     11071     11070     11073     11075
     11071     11070     11073     11076     11072     11070     11073     11074
     11072     11070     11073     11075     11072     11070     11073     11076
     11073     11076     11078     11079     11073     11076     11078     11080
     11073     11076     11078     11081     11073     11076     11082     11083
     11073     11076     11082     11084     11073     11076     11082     11085
     11074     11073     11076     11077     11074     11073     11076     11078
     11074     11073     11076     11082     11075     11073     11076     11077
     11075     11073     11076     11078     11075     11073     11076     11082
     11077     11076     11078     11079     11077     11076     11078     11080
     11077     11076     11078     11081     11077     11076     11082     11083
     11077     11076     11082     11084     11077     11076     11082     11085
     11078     11076     11082     11083     11078     11076     11082     11084
     11078     11076     11082     11085     11079     11078     11076     11082
     11080     11078     11076     11082     11081     11078     11076     11082
     11086     11087     11102     11103     11086     11087     11102     11104
     11086     11087     11102     11108     11087     11086     11090     11091
     11087     11086     11090     11092     11087     11086     11090     11093
     11087     11086     11094     11095     11087     11086     11094     11096
     11087     11086     11094     11097     11087     11086     11098     11099
     11087     11086     11098     11100     11087     11086     11098     11101
     11087     11102     11108     11105     11088     11087     11086     11090
     11088     11087     11086     11094     11088     11087     11086     11098
     11088     11087     11102     11103     11088     11087     11102     11104
     11088     11087     11102     11108     11089     11087     11086     11090
     11089     11087     11086     11094     11089     11087     11086     11098
     11089     11087     11102     11103     11089     11087     11102     11104
     11089     11087     11102     11108     11090     11086     11087     11102
     11090     11086     11094     11095     11090     11086     11094     11096
     11090     11086     11094     11097     11090     11086     11098     11099
     11090     11086     11098     11100     11090     11086     11098     11101
     11091     11090     11086     11094     11091     11090     11086     11098
     11092     11090     11086     11094     11092     11090     11086     11098
     11093     11090     11086     11094     11093     11090     11086     11098
     11094     11086     11087     11102     11094     11086     11098     11099
     11094     11086     11098     11100     11094     11086     11098     11101
     11095     11094     11086     11098     11096     11094     11086     11098
     11097     11094     11086     11098     11098     11086     11087     11102
     11102     11108     11105     11106     11102     11108     11105     11107
     11102     11108     11105     11109     11103     11102     11108     11105
     11104     11102     11108     11105     11105     11109     11110     11111
     11105     11109     11110     11112     11105     11109     11110     11113
     11106     11105     11109     11110     11107     11105     11109     11110
     11108     11105     11109     11110     11109     11110     11113     11114
     11109     11110     11113     11115     11109     11110     11113     11121
     11110     11113     11115     11116     11110     11113     11121     11122
     11110     11113     11121     11123     11110     11113     11121     11124
     11111     11110     11113     11114     11111     11110     11113     11115
     11111     11110     11113     11121     11112     11110     11113     11114
     11112     11110     11113     11115     11112     11110     11113     11121
     11113     11115     11116     11117     11113     11115     11116     11118
     11113     11121     11124     11125     11114     11113     11115     11116
     11114     11113     11121     11122     11114     11113     11121     11123
     11114     11113     11121     11124     11115     11113     11121     11122
     11115     11113     11121     11123     11115     11113     11121     11124
     11115     11116     11118     11119     11115     11116     11118     11120
     11115     11116     11118     11130     11116     11115     11113     11121
     11116     11118     11130     11131     11116     11118     11130     11132
     11116     11118     11130     11133     11117     11116     11118     11119
     11117     11116     11118     11120     11117     11116     11118     11130
     11118     11130     11133     11134     11118     11130     11133     11135
     11118     11130     11133     11136     11119     11118     11130     11131
     11119     11118     11130     11132     11119     11118     11130     11133
     11120     11118     11130     11131     11120     11118     11130     11132
     11120     11118     11130     11133     11121     11124     11125     11126
     11121     11124     11125     11127     11122     11121     11124     11125
     11123     11121     11124     11125     11124     11125     11127     11128
     11124     11125     11127     11129     11124     11125     11127     11177
     11125     11127     11177     11178     11125     11127     11177     11179
     11125     11127     11177     11180     11126     11125     11127     11128
     11126     11125     11127     11129     11126     11125     11127     11177
     11127     11177     11180     11181     11127     11177     11180     11182
     11127     11177     11180     11183     11128     11127     11177     11178
     11128     11127     11177     11179     11128     11127     11177     11180
     11129     11127     11177     11178     11129     11127     11177     11179
     11129     11127     11177     11180     11130     11133     11136     11137
     11130     11133     11136     11138     11130     11133     11136     11139
     11131     11130     11133     11134     11131     11130     11133     11135
     11131     11130     11133     11136     11132     11130     11133     11134
     11132     11130     11133     11135     11132     11130     11133     11136
     11133     11136     11139     11140     11133     11136     11139     11141
     11133     11136     11139     11142     11134     11133     11136     11137
     11134     11133     11136     11138     11134     11133     11136     11139
     11135     11133     11136     11137     11135     11133     11136     11138
     11135     11133     11136     11139     11136     11139     11142     11143
     11136     11139     11142     11144     11136     11139     11142     11145
     11137     11136     11139     11140     11137     11136     11139     11141
     11137     11136     11139     11142     11138     11136     11139     11140
     11138     11136     11139     11141     11138     11136     11139     11142
     11139     11142     11145     11146     11139     11142     11145     11147
     11139     11142     11145     11148     11140     11139     11142     11143
     11140     11139     11142     11144     11140     11139     11142     11145
     11141     11139     11142     11143     11141     11139     11142     11144
     11141     11139     11142     11145     11142     11145     11148     11149
     11142     11145     11148     11150     11143     11142     11145     11146
     11143     11142     11145     11147     11143     11142     11145     11148
     11144     11142     11145     11146     11144     11142     11145     11147
     11144     11142     11145     11148     11145     11148     11150     11151
     11145     11148     11150     11152     11146     11145     11148     11149
     11146     11145     11148     11150     11147     11145     11148     11149
     11147     11145     11148     11150     11148     11150     11152     11153
     11148     11150     11152     11154     11148     11150     11152     11155
     11149     11148     11150     11151     11149     11148     11150     11152
     11150     11152     11155     11156     11150     11152     11155     11157
     11150     11152     11155     11158     11151     11150     11152     11153
     11151     11150     11152     11154     11151     11150     11152     11155
     11152     11155     11158     11159     11152     11155     11158     11160
     11152     11155     11158     11161     11153     11152     11155     11156
     11153     11152     11155     11157     11153     11152     11155     11158
     11154     11152     11155     11156     11154     11152     11155     11157
     11154     11152     11155     11158     11155     11158     11161     11162
     11155     11158     11161     11163     11155     11158     11161     11164
     11156     11155     11158     11159     11156     11155     11158     11160
     11156     11155     11158     11161     11157     11155     11158     11159
     11157     11155     11158     11160     11157     11155     11158     11161
     11158     11161     11164     11165     11158     11161     11164     11166
     11158     11161     11164     11167     11159     11158     11161     11162
     11159     11158     11161     11163     11159     11158     11161     11164
     11160     11158     11161     11162     11160     11158     11161     11163
     11160     11158     11161     11164     11161     11164     11167     11168
     11161     11164     11167     11169     11161     11164     11167     11170
     11162     11161     11164     11165     11162     11161     11164     11166
     11162     11161     11164     11167     11163     11161     11164     11165
     11163     11161     11164     11166     11163     11161     11164     11167
     11164     11167     11170     11171     11164     11167     11170     11172
     11164     11167     11170     11173     11165     11164     11167     11168
     11165     11164     11167     11169     11165     11164     11167     11170
     11166     11164     11167     11168     11166     11164     11167     11169
     11166     11164     11167     11170     11167     11170     11173     11174
     11167     11170     11173     11175     11167     11170     11173     11176
     11168     11167     11170     11171     11168     11167     11170     11172
     11168     11167     11170     11173     11169     11167     11170     11171
     11169     11167     11170     11172     11169     11167     11170     11173
     11171     11170     11173     11174     11171     11170     11173     11175
     11171     11170     11173     11176     11172     11170     11173     11174
     11172     11170     11173     11175     11172     11170     11173     11176
     11177     11180     11183     11184     11177     11180     11183     11185
     11177     11180     11183     11186     11178     11177     11180     11181
     11178     11177     11180     11182     11178     11177     11180     11183
     11179     11177     11180     11181     11179     11177     11180     11182
     11179     11177     11180     11183     11180     11183     11186     11187
     11180     11183     11186     11188     11180     11183     11186     11189
     11181     11180     11183     11184     11181     11180     11183     11185
     11181     11180     11183     11186     11182     11180     11183     11184
     11182     11180     11183     11185     11182     11180     11183     11186
     11183     11186     11189     11190     11183     11186     11189     11191
     11183     11186     11189     11192     11184     11183     11186     11187
     11184     11183     11186     11188     11184     11183     11186     11189
     11185     11183     11186     11187     11185     11183     11186     11188
     11185     11183     11186     11189     11186     11189     11192     11193
     11186     11189     11192     11194     11186     11189     11192     11195
     11187     11186     11189     11190     11187     11186     11189     11191
     11187     11186     11189     11192     11188     11186     11189     11190
     11188     11186     11189     11191     11188     11186     11189     11192
     11189     11192     11195     11196     11189     11192     11195     11197
     11190     11189     11192     11193     11190     11189     11192     11194
     11190     11189     11192     11195     11191     11189     11192     11193
     11191     11189     11192     11194     11191     11189     11192     11195
     11192     11195     11197     11198     11192     11195     11197     11199
     11193     11192     11195     11196     11193     11192     11195     11197
     11194     11192     11195     11196     11194     11192     11195     11197
     11195     11197     11199     11200     11195     11197     11199     11201
     11195     11197     11199     11202     11196     11195     11197     11198
     11196     11195     11197     11199     11197     11199     11202     11203
     11197     11199     11202     11204     11197     11199     11202     11205
     11198     11197     11199     11200     11198     11197     11199     11201
     11198     11197     11199     11202     11199     11202     11205     11206
     11199     11202     11205     11207     11199     11202     11205     11208
     11200     11199     11202     11203     11200     11199     11202     11204
     11200     11199     11202     11205     11201     11199     11202     11203
     11201     11199     11202     11204     11201     11199     11202     11205
     11202     11205     11208     11209     11202     11205     11208     11210
     11202     11205     11208     11211     11203     11202     11205     11206
     11203     11202     11205     11207     11203     11202     11205     11208
     11204     11202     11205     11206     11204     11202     11205     11207
     11204     11202     11205     11208     11205     11208     11211     11212
     11205     11208     11211     11213     11205     11208     11211     11214
     11206     11205     11208     11209     11206     11205     11208     11210
     11206     11205     11208     11211     11207     11205     11208     11209
     11207     11205     11208     11210     11207     11205     11208     11211
     11208     11211     11214     11215     11208     11211     11214     11216
     11208     11211     11214     11217     11209     11208     11211     11212
     11209     11208     11211     11213     11209     11208     11211     11214
     11210     11208     11211     11212     11210     11208     11211     11213
     11210     11208     11211     11214     11211     11214     11217     11218
     11211     11214     11217     11219     11211     11214     11217     11220
     11212     11211     11214     11215     11212     11211     11214     11216
     11212     11211     11214     11217     11213     11211     11214     11215
     11213     11211     11214     11216     11213     11211     11214     11217
     11214     11217     11220     11221     11214     11217     11220     11222
     11214     11217     11220     11223     11215     11214     11217     11218
     11215     11214     11217     11219     11215     11214     11217     11220
     11216     11214     11217     11218     11216     11214     11217     11219
     11216     11214     11217     11220     11218     11217     11220     11221
     11218     11217     11220     11222     11218     11217     11220     11223
     11219     11217     11220     11221     11219     11217     11220     11222
     11219     11217     11220     11223     11224     11228     11231     11232
     11224     11228     11231     11233     11224     11228     11231     11238
     11225     11224     11228     11229     11225     11224     11228     11230
     11225     11224     11228     11231     11226     11224     11228     11229
     11226     11224     11228     11230     11226     11224     11228     11231
     11227     11224     11228     11229     11227     11224     11228     11230
     11227     11224     11228     11231     11228     11231     11238     11234
     11229     11228     11231     11232     11229     11228     11231     11233
     11229     11228     11231     11238     11230     11228     11231     11232
     11230     11228     11231     11233     11230     11228     11231     11238
     11231     11238     11234     11235     11231     11238     11234     11236
     11231     11238     11234     11237     11232     11231     11238     11234
     11233     11231     11238     11234     11234     11237     11239     11240
     11234     11237     11239     11241     11234     11237     11239     11242
     11235     11234     11237     11239     11236     11234     11237     11239
     11237     11239     11242     11243     11237     11239     11242     11244
     11237     11239     11242     11250     11238     11234     11237     11239
     11239     11242     11244     11245     11239     11242     11250     11251
     11239     11242     11250     11252     11239     11242     11250     11253
     11240     11239     11242     11243     11240     11239     11242     11244
     11240     11239     11242     11250     11241     11239     11242     11243
     11241     11239     11242     11244     11241     11239     11242     11250
     11242     11244     11245     11246     11242     11244     11245     11247
     11242     11250     11253     11254     11243     11242     11244     11245
     11243     11242     11250     11251     11243     11242     11250     11252
     11243     11242     11250     11253     11244     11242     11250     11251
     11244     11242     11250     11252     11244     11242     11250     11253
     11244     11245     11247     11248     11244     11245     11247     11249
     11244     11245     11247     11259     11245     11244     11242     11250
     11245     11247     11259     11260     11245     11247     11259     11261
     11245     11247     11259     11262     11246     11245     11247     11248
     11246     11245     11247     11249     11246     11245     11247     11259
     11247     11259     11262     11263     11247     11259     11262     11264
     11247     11259     11262     11265     11248     11247     11259     11260
     11248     11247     11259     11261     11248     11247     11259     11262
     11249     11247     11259     11260     11249     11247     11259     11261
     11249     11247     11259     11262     11250     11253     11254     11255
     11250     11253     11254     11256     11251     11250     11253     11254
     11252     11250     11253     11254     11253     11254     11256     11257
     11253     11254     11256     11258     11253     11254     11256     11306
     11254     11256     11306     11307     11254     11256     11306     11308
     11254     11256     11306     11309     11255     11254     11256     11257
     11255     11254     11256     11258     11255     11254     11256     11306
     11256     11306     11309     11310     11256     11306     11309     11311
     11256     11306     11309     11312     11257     11256     11306     11307
     11257     11256     11306     11308     11257     11256     11306     11309
     11258     11256     11306     11307     11258     11256     11306     11308
     11258     11256     11306     11309     11259     11262     11265     11266
     11259     11262     11265     11267     11259     11262     11265     11268
     11260     11259     11262     11263     11260     11259     11262     11264
     11260     11259     11262     11265     11261     11259     11262     11263
     11261     11259     11262     11264     11261     11259     11262     11265
     11262     11265     11268     11269     11262     11265     11268     11270
     11262     11265     11268     11271     11263     11262     11265     11266
     11263     11262     11265     11267     11263     11262     11265     11268
     11264     11262     11265     11266     11264     11262     11265     11267
     11264     11262     11265     11268     11265     11268     11271     11272
     11265     11268     11271     11273     11265     11268     11271     11274
     11266     11265     11268     11269     11266     11265     11268     11270
     11266     11265     11268     11271     11267     11265     11268     11269
     11267     11265     11268     11270     11267     11265     11268     11271
     11268     11271     11274     11275     11268     11271     11274     11276
     11268     11271     11274     11277     11269     11268     11271     11272
     11269     11268     11271     11273     11269     11268     11271     11274
     11270     11268     11271     11272     11270     11268     11271     11273
     11270     11268     11271     11274     11271     11274     11277     11278
     11271     11274     11277     11279     11272     11271     11274     11275
     11272     11271     11274     11276     11272     11271     11274     11277
     11273     11271     11274     11275     11273     11271     11274     11276
     11273     11271     11274     11277     11274     11277     11279     11280
     11274     11277     11279     11281     11275     11274     11277     11278
     11275     11274     11277     11279     11276     11274     11277     11278
     11276     11274     11277     11279     11277     11279     11281     11282
     11277     11279     11281     11283     11277     11279     11281     11284
     11278     11277     11279     11280     11278     11277     11279     11281
     11279     11281     11284     11285     11279     11281     11284     11286
     11279     11281     11284     11287     11280     11279     11281     11282
     11280     11279     11281     11283     11280     11279     11281     11284
     11281     11284     11287     11288     11281     11284     11287     11289
     11281     11284     11287     11290     11282     11281     11284     11285
     11282     11281     11284     11286     11282     11281     11284     11287
     11283     11281     11284     11285     11283     11281     11284     11286
     11283     11281     11284     11287     11284     11287     11290     11291
     11284     11287     11290     11292     11284     11287     11290     11293
     11285     11284     11287     11288     11285     11284     11287     11289
     11285     11284     11287     11290     11286     11284     11287     11288
     11286     11284     11287     11289     11286     11284     11287     11290
     11287     11290     11293     11294     11287     11290     11293     11295
     11287     11290     11293     11296     11288     11287     11290     11291
     11288     11287     11290     11292     11288     11287     11290     11293
     11289     11287     11290     11291     11289     11287     11290     11292
     11289     11287     11290     11293     11290     11293     11296     11297
     11290     11293     11296     11298     11290     11293     11296     11299
     11291     11290     11293     11294     11291     11290     11293     11295
     11291     11290     11293     11296     11292     11290     11293     11294
     11292     11290     11293     11295     11292     11290     11293     11296
     11293     11296     11299     11300     11293     11296     11299     11301
     11293     11296     11299     11302     11294     11293     11296     11297
     11294     11293     11296     11298     11294     11293     11296     11299
     11295     11293     11296     11297     11295     11293     11296     11298
     11295     11293     11296     11299     11296     11299     11302     11303
     11296     11299     11302     11304     11296     11299     11302     11305
     11297     11296     11299     11300     11297     11296     11299     11301
     11297     11296     11299     11302     11298     11296     11299     11300
     11298     11296     11299     11301     11298     11296     11299     11302
     11300     11299     11302     11303     11300     11299     11302     11304
     11300     11299     11302     11305     11301     11299     11302     11303
     11301     11299     11302     11304     11301     11299     11302     11305
     11306     11309     11312     11313     11306     11309     11312     11314
     11306     11309     11312     11315     11307     11306     11309     11310
     11307     11306     11309     11311     11307     11306     11309     11312
     11308     11306     11309     11310     11308     11306     11309     11311
     11308     11306     11309     11312     11309     11312     11315     11316
     11309     11312     11315     11317     11309     11312     11315     11318
     11310     11309     11312     11313     11310     11309     11312     11314
     11310     11309     11312     11315     11311     11309     11312     11313
     11311     11309     11312     11314     11311     11309     11312     11315
     11312     11315     11318     11319     11312     11315     11318     11320
     11312     11315     11318     11321     11313     11312     11315     11316
     11313     11312     11315     11317     11313     11312     11315     11318
     11314     11312     11315     11316     11314     11312     11315     11317
     11314     11312     11315     11318     11315     11318     11321     11322
     11315     11318     11321     11323     11315     11318     11321     11324
     11316     11315     11318     11319     11316     11315     11318     11320
     11316     11315     11318     11321     11317     11315     11318     11319
     11317     11315     11318     11320     11317     11315     11318     11321
     11318     11321     11324     11325     11318     11321     11324     11326
     11319     11318     11321     11322     11319     11318     11321     11323
     11319     11318     11321     11324     11320     11318     11321     11322
     11320     11318     11321     11323     11320     11318     11321     11324
     11321     11324     11326     11327     11321     11324     11326     11328
     11322     11321     11324     11325     11322     11321     11324     11326
     11323     11321     11324     11325     11323     11321     11324     11326
     11324     11326     11328     11329     11324     11326     11328     11330
     11324     11326     11328     11331     11325     11324     11326     11327
     11325     11324     11326     11328     11326     11328     11331     11332
     11326     11328     11331     11333     11326     11328     11331     11334
     11327     11326     11328     11329     11327     11326     11328     11330
     11327     11326     11328     11331     11328     11331     11334     11335
     11328     11331     11334     11336     11328     11331     11334     11337
     11329     11328     11331     11332     11329     11328     11331     11333
     11329     11328     11331     11334     11330     11328     11331     11332
     11330     11328     11331     11333     11330     11328     11331     11334
     11331     11334     11337     11338     11331     11334     11337     11339
     11331     11334     11337     11340     11332     11331     11334     11335
     11332     11331     11334     11336     11332     11331     11334     11337
     11333     11331     11334     11335     11333     11331     11334     11336
     11333     11331     11334     11337     11334     11337     11340     11341
     11334     11337     11340     11342     11334     11337     11340     11343
     11335     11334     11337     11338     11335     11334     11337     11339
     11335     11334     11337     11340     11336     11334     11337     11338
     11336     11334     11337     11339     11336     11334     11337     11340
     11337     11340     11343     11344     11337     11340     11343     11345
     11337     11340     11343     11346     11338     11337     11340     11341
     11338     11337     11340     11342     11338     11337     11340     11343
     11339     11337     11340     11341     11339     11337     11340     11342
     11339     11337     11340     11343     11340     11343     11346     11347
     11340     11343     11346     11348     11340     11343     11346     11349
     11341     11340     11343     11344     11341     11340     11343     11345
     11341     11340     11343     11346     11342     11340     11343     11344
     11342     11340     11343     11345     11342     11340     11343     11346
     11343     11346     11349     11350     11343     11346     11349     11351
     11343     11346     11349     11352     11344     11343     11346     11347
     11344     11343     11346     11348     11344     11343     11346     11349
     11345     11343     11346     11347     11345     11343     11346     11348
     11345     11343     11346     11349     11347     11346     11349     11350
     11347     11346     11349     11351     11347     11346     11349     11352
     11348     11346     11349     11350     11348     11346     11349     11351
     11348     11346     11349     11352     11353     11357     11360     11361
     11353     11357     11360     11362     11353     11357     11360     11367
     11354     11353     11357     11358     11354     11353     11357     11359
     11354     11353     11357     11360     11355     11353     11357     11358
     11355     11353     11357     11359     11355     11353     11357     11360
     11356     11353     11357     11358     11356     11353     11357     11359
     11356     11353     11357     11360     11357     11360     11367     11363
     11358     11357     11360     11361     11358     11357     11360     11362
     11358     11357     11360     11367     11359     11357     11360     11361
     11359     11357     11360     11362     11359     11357     11360     11367
     11360     11367     11363     11364     11360     11367     11363     11365
     11360     11367     11363     11366     11361     11360     11367     11363
     11362     11360     11367     11363     11363     11366     11368     11369
     11363     11366     11368     11370     11363     11366     11368     11371
     11364     11363     11366     11368     11365     11363     11366     11368
     11366     11368     11371     11372     11366     11368     11371     11373
     11366     11368     11371     11379     11367     11363     11366     11368
     11368     11371     11373     11374     11368     11371     11379     11380
     11368     11371     11379     11381     11368     11371     11379     11382
     11369     11368     11371     11372     11369     11368     11371     11373
     11369     11368     11371     11379     11370     11368     11371     11372
     11370     11368     11371     11373     11370     11368     11371     11379
     11371     11373     11374     11375     11371     11373     11374     11376
     11371     11379     11382     11383     11372     11371     11373     11374
     11372     11371     11379     11380     11372     11371     11379     11381
     11372     11371     11379     11382     11373     11371     11379     11380
     11373     11371     11379     11381     11373     11371     11379     11382
     11373     11374     11376     11377     11373     11374     11376     11378
     11373     11374     11376     11388     11374     11373     11371     11379
     11374     11376     11388     11389     11374     11376     11388     11390
     11374     11376     11388     11391     11375     11374     11376     11377
     11375     11374     11376     11378     11375     11374     11376     11388
     11376     11388     11391     11392     11376     11388     11391     11393
     11376     11388     11391     11394     11377     11376     11388     11389
     11377     11376     11388     11390     11377     11376     11388     11391
     11378     11376     11388     11389     11378     11376     11388     11390
     11378     11376     11388     11391     11379     11382     11383     11384
     11379     11382     11383     11385     11380     11379     11382     11383
     11381     11379     11382     11383     11382     11383     11385     11386
     11382     11383     11385     11387     11382     11383     11385     11435
     11383     11385     11435     11436     11383     11385     11435     11437
     11383     11385     11435     11438     11384     11383     11385     11386
     11384     11383     11385     11387     11384     11383     11385     11435
     11385     11435     11438     11439     11385     11435     11438     11440
     11385     11435     11438     11441     11386     11385     11435     11436
     11386     11385     11435     11437     11386     11385     11435     11438
     11387     11385     11435     11436     11387     11385     11435     11437
     11387     11385     11435     11438     11388     11391     11394     11395
     11388     11391     11394     11396     11388     11391     11394     11397
     11389     11388     11391     11392     11389     11388     11391     11393
     11389     11388     11391     11394     11390     11388     11391     11392
     11390     11388     11391     11393     11390     11388     11391     11394
     11391     11394     11397     11398     11391     11394     11397     11399
     11391     11394     11397     11400     11392     11391     11394     11395
     11392     11391     11394     11396     11392     11391     11394     11397
     11393     11391     11394     11395     11393     11391     11394     11396
     11393     11391     11394     11397     11394     11397     11400     11401
     11394     11397     11400     11402     11394     11397     11400     11403
     11395     11394     11397     11398     11395     11394     11397     11399
     11395     11394     11397     11400     11396     11394     11397     11398
     11396     11394     11397     11399     11396     11394     11397     11400
     11397     11400     11403     11404     11397     11400     11403     11405
     11397     11400     11403     11406     11398     11397     11400     11401
     11398     11397     11400     11402     11398     11397     11400     11403
     11399     11397     11400     11401     11399     11397     11400     11402
     11399     11397     11400     11403     11400     11403     11406     11407
     11400     11403     11406     11408     11401     11400     11403     11404
     11401     11400     11403     11405     11401     11400     11403     11406
     11402     11400     11403     11404     11402     11400     11403     11405
     11402     11400     11403     11406     11403     11406     11408     11409
     11403     11406     11408     11410     11404     11403     11406     11407
     11404     11403     11406     11408     11405     11403     11406     11407
     11405     11403     11406     11408     11406     11408     11410     11411
     11406     11408     11410     11412     11406     11408     11410     11413
     11407     11406     11408     11409     11407     11406     11408     11410
     11408     11410     11413     11414     11408     11410     11413     11415
     11408     11410     11413     11416     11409     11408     11410     11411
     11409     11408     11410     11412     11409     11408     11410     11413
     11410     11413     11416     11417     11410     11413     11416     11418
     11410     11413     11416     11419     11411     11410     11413     11414
     11411     11410     11413     11415     11411     11410     11413     11416
     11412     11410     11413     11414     11412     11410     11413     11415
     11412     11410     11413     11416     11413     11416     11419     11420
     11413     11416     11419     11421     11413     11416     11419     11422
     11414     11413     11416     11417     11414     11413     11416     11418
     11414     11413     11416     11419     11415     11413     11416     11417
     11415     11413     11416     11418     11415     11413     11416     11419
     11416     11419     11422     11423     11416     11419     11422     11424
     11416     11419     11422     11425     11417     11416     11419     11420
     11417     11416     11419     11421     11417     11416     11419     11422
     11418     11416     11419     11420     11418     11416     11419     11421
     11418     11416     11419     11422     11419     11422     11425     11426
     11419     11422     11425     11427     11419     11422     11425     11428
     11420     11419     11422     11423     11420     11419     11422     11424
     11420     11419     11422     11425     11421     11419     11422     11423
     11421     11419     11422     11424     11421     11419     11422     11425
     11422     11425     11428     11429     11422     11425     11428     11430
     11422     11425     11428     11431     11423     11422     11425     11426
     11423     11422     11425     11427     11423     11422     11425     11428
     11424     11422     11425     11426     11424     11422     11425     11427
     11424     11422     11425     11428     11425     11428     11431     11432
     11425     11428     11431     11433     11425     11428     11431     11434
     11426     11425     11428     11429     11426     11425     11428     11430
     11426     11425     11428     11431     11427     11425     11428     11429
     11427     11425     11428     11430     11427     11425     11428     11431
     11429     11428     11431     11432     11429     11428     11431     11433
     11429     11428     11431     11434     11430     11428     11431     11432
     11430     11428     11431     11433     11430     11428     11431     11434
     11435     11438     11441     11442     11435     11438     11441     11443
     11435     11438     11441     11444     11436     11435     11438     11439
     11436     11435     11438     11440     11436     11435     11438     11441
     11437     11435     11438     11439     11437     11435     11438     11440
     11437     11435     11438     11441     11438     11441     11444     11445
     11438     11441     11444     11446     11438     11441     11444     11447
     11439     11438     11441     11442     11439     11438     11441     11443
     11439     11438     11441     11444     11440     11438     11441     11442
     11440     11438     11441     11443     11440     11438     11441     11444
     11441     11444     11447     11448     11441     11444     11447     11449
     11441     11444     11447     11450     11442     11441     11444     11445
     11442     11441     11444     11446     11442     11441     11444     11447
     11443     11441     11444     11445     11443     11441     11444     11446
     11443     11441     11444     11447     11444     11447     11450     11451
     11444     11447     11450     11452     11444     11447     11450     11453
     11445     11444     11447     11448     11445     11444     11447     11449
     11445     11444     11447     11450     11446     11444     11447     11448
     11446     11444     11447     11449     11446     11444     11447     11450
     11447     11450     11453     11454     11447     11450     11453     11455
     11448     11447     11450     11451     11448     11447     11450     11452
     11448     11447     11450     11453     11449     11447     11450     11451
     11449     11447     11450     11452     11449     11447     11450     11453
     11450     11453     11455     11456     11450     11453     11455     11457
     11451     11450     11453     11454     11451     11450     11453     11455
     11452     11450     11453     11454     11452     11450     11453     11455
     11453     11455     11457     11458     11453     11455     11457     11459
     11453     11455     11457     11460     11454     11453     11455     11456
     11454     11453     11455     11457     11455     11457     11460     11461
     11455     11457     11460     11462     11455     11457     11460     11463
     11456     11455     11457     11458     11456     11455     11457     11459
     11456     11455     11457     11460     11457     11460     11463     11464
     11457     11460     11463     11465     11457     11460     11463     11466
     11458     11457     11460     11461     11458     11457     11460     11462
     11458     11457     11460     11463     11459     11457     11460     11461
     11459     11457     11460     11462     11459     11457     11460     11463
     11460     11463     11466     11467     11460     11463     11466     11468
     11460     11463     11466     11469     11461     11460     11463     11464
     11461     11460     11463     11465     11461     11460     11463     11466
     11462     11460     11463     11464     11462     11460     11463     11465
     11462     11460     11463     11466     11463     11466     11469     11470
     11463     11466     11469     11471     11463     11466     11469     11472
     11464     11463     11466     11467     11464     11463     11466     11468
     11464     11463     11466     11469     11465     11463     11466     11467
     11465     11463     11466     11468     11465     11463     11466     11469
     11466     11469     11472     11473     11466     11469     11472     11474
     11466     11469     11472     11475     11467     11466     11469     11470
     11467     11466     11469     11471     11467     11466     11469     11472
     11468     11466     11469     11470     11468     11466     11469     11471
     11468     11466     11469     11472     11469     11472     11475     11476
     11469     11472     11475     11477     11469     11472     11475     11478
     11470     11469     11472     11473     11470     11469     11472     11474
     11470     11469     11472     11475     11471     11469     11472     11473
     11471     11469     11472     11474     11471     11469     11472     11475
     11472     11475     11478     11479     11472     11475     11478     11480
     11472     11475     11478     11481     11473     11472     11475     11476
     11473     11472     11475     11477     11473     11472     11475     11478
     11474     11472     11475     11476     11474     11472     11475     11477
     11474     11472     11475     11478     11476     11475     11478     11479
     11476     11475     11478     11480     11476     11475     11478     11481
     11477     11475     11478     11479     11477     11475     11478     11480
     11477     11475     11478     11481     11482     11483     11498     11499
     11482     11483     11498     11500     11482     11483     11498     11504
     11483     11482     11486     11487     11483     11482     11486     11488
     11483     11482     11486     11489     11483     11482     11490     11491
     11483     11482     11490     11492     11483     11482     11490     11493
     11483     11482     11494     11495     11483     11482     11494     11496
     11483     11482     11494     11497     11483     11498     11504     11501
     11484     11483     11482     11486     11484     11483     11482     11490
     11484     11483     11482     11494     11484     11483     11498     11499
     11484     11483     11498     11500     11484     11483     11498     11504
     11485     11483     11482     11486     11485     11483     11482     11490
     11485     11483     11482     11494     11485     11483     11498     11499
     11485     11483     11498     11500     11485     11483     11498     11504
     11486     11482     11483     11498     11486     11482     11490     11491
     11486     11482     11490     11492     11486     11482     11490     11493
     11486     11482     11494     11495     11486     11482     11494     11496
     11486     11482     11494     11497     11487     11486     11482     11490
     11487     11486     11482     11494     11488     11486     11482     11490
     11488     11486     11482     11494     11489     11486     11482     11490
     11489     11486     11482     11494     11490     11482     11483     11498
     11490     11482     11494     11495     11490     11482     11494     11496
     11490     11482     11494     11497     11491     11490     11482     11494
     11492     11490     11482     11494     11493     11490     11482     11494
     11494     11482     11483     11498     11498     11504     11501     11502
     11498     11504     11501     11503     11498     11504     11501     11505
     11499     11498     11504     11501     11500     11498     11504     11501
     11501     11505     11506     11507     11501     11505     11506     11508
     11501     11505     11506     11509     11502     11501     11505     11506
     11503     11501     11505     11506     11504     11501     11505     11506
     11505     11506     11509     11510     11505     11506     11509     11511
     11505     11506     11509     11517     11506     11509     11511     11512
     11506     11509     11517     11518     11506     11509     11517     11519
     11506     11509     11517     11520     11507     11506     11509     11510
     11507     11506     11509     11511     11507     11506     11509     11517
     11508     11506     11509     11510     11508     11506     11509     11511
     11508     11506     11509     11517     11509     11511     11512     11513
     11509     11511     11512     11514     11509     11517     11520     11521
     11510     11509     11511     11512     11510     11509     11517     11518
     11510     11509     11517     11519     11510     11509     11517     11520
     11511     11509     11517     11518     11511     11509     11517     11519
     11511     11509     11517     11520     11511     11512     11514     11515
     11511     11512     11514     11516     11511     11512     11514     11526
     11512     11511     11509     11517     11512     11514     11526     11527
     11512     11514     11526     11528     11512     11514     11526     11529
     11513     11512     11514     11515     11513     11512     11514     11516
     11513     11512     11514     11526     11514     11526     11529     11530
     11514     11526     11529     11531     11514     11526     11529     11532
     11515     11514     11526     11527     11515     11514     11526     11528
     11515     11514     11526     11529     11516     11514     11526     11527
     11516     11514     11526     11528     11516     11514     11526     11529
     11517     11520     11521     11522     11517     11520     11521     11523
     11518     11517     11520     11521     11519     11517     11520     11521
     11520     11521     11523     11524     11520     11521     11523     11525
     11520     11521     11523     11573     11521     11523     11573     11574
     11521     11523     11573     11575     11521     11523     11573     11576
     11522     11521     11523     11524     11522     11521     11523     11525
     11522     11521     11523     11573     11523     11573     11576     11577
     11523     11573     11576     11578     11523     11573     11576     11579
     11524     11523     11573     11574     11524     11523     11573     11575
     11524     11523     11573     11576     11525     11523     11573     11574
     11525     11523     11573     11575     11525     11523     11573     11576
     11526     11529     11532     11533     11526     11529     11532     11534
     11526     11529     11532     11535     11527     11526     11529     11530
     11527     11526     11529     11531     11527     11526     11529     11532
     11528     11526     11529     11530     11528     11526     11529     11531
     11528     11526     11529     11532     11529     11532     11535     11536
     11529     11532     11535     11537     11529     11532     11535     11538
     11530     11529     11532     11533     11530     11529     11532     11534
     11530     11529     11532     11535     11531     11529     11532     11533
     11531     11529     11532     11534     11531     11529     11532     11535
     11532     11535     11538     11539     11532     11535     11538     11540
     11532     11535     11538     11541     11533     11532     11535     11536
     11533     11532     11535     11537     11533     11532     11535     11538
     11534     11532     11535     11536     11534     11532     11535     11537
     11534     11532     11535     11538     11535     11538     11541     11542
     11535     11538     11541     11543     11535     11538     11541     11544
     11536     11535     11538     11539     11536     11535     11538     11540
     11536     11535     11538     11541     11537     11535     11538     11539
     11537     11535     11538     11540     11537     11535     11538     11541
     11538     11541     11544     11545     11538     11541     11544     11546
     11539     11538     11541     11542     11539     11538     11541     11543
     11539     11538     11541     11544     11540     11538     11541     11542
     11540     11538     11541     11543     11540     11538     11541     11544
     11541     11544     11546     11547     11541     11544     11546     11548
     11542     11541     11544     11545     11542     11541     11544     11546
     11543     11541     11544     11545     11543     11541     11544     11546
     11544     11546     11548     11549     11544     11546     11548     11550
     11544     11546     11548     11551     11545     11544     11546     11547
     11545     11544     11546     11548     11546     11548     11551     11552
     11546     11548     11551     11553     11546     11548     11551     11554
     11547     11546     11548     11549     11547     11546     11548     11550
     11547     11546     11548     11551     11548     11551     11554     11555
     11548     11551     11554     11556     11548     11551     11554     11557
     11549     11548     11551     11552     11549     11548     11551     11553
     11549     11548     11551     11554     11550     11548     11551     11552
     11550     11548     11551     11553     11550     11548     11551     11554
     11551     11554     11557     11558     11551     11554     11557     11559
     11551     11554     11557     11560     11552     11551     11554     11555
     11552     11551     11554     11556     11552     11551     11554     11557
     11553     11551     11554     11555     11553     11551     11554     11556
     11553     11551     11554     11557     11554     11557     11560     11561
     11554     11557     11560     11562     11554     11557     11560     11563
     11555     11554     11557     11558     11555     11554     11557     11559
     11555     11554     11557     11560     11556     11554     11557     11558
     11556     11554     11557     11559     11556     11554     11557     11560
     11557     11560     11563     11564     11557     11560     11563     11565
     11557     11560     11563     11566     11558     11557     11560     11561
     11558     11557     11560     11562     11558     11557     11560     11563
     11559     11557     11560     11561     11559     11557     11560     11562
     11559     11557     11560     11563     11560     11563     11566     11567
     11560     11563     11566     11568     11560     11563     11566     11569
     11561     11560     11563     11564     11561     11560     11563     11565
     11561     11560     11563     11566     11562     11560     11563     11564
     11562     11560     11563     11565     11562     11560     11563     11566
     11563     11566     11569     11570     11563     11566     11569     11571
     11563     11566     11569     11572     11564     11563     11566     11567
     11564     11563     11566     11568     11564     11563     11566     11569
     11565     11563     11566     11567     11565     11563     11566     11568
     11565     11563     11566     11569     11567     11566     11569     11570
     11567     11566     11569     11571     11567     11566     11569     11572
     11568     11566     11569     11570     11568     11566     11569     11571
     11568     11566     11569     11572     11573     11576     11579     11580
     11573     11576     11579     11581     11573     11576     11579     11582
     11574     11573     11576     11577     11574     11573     11576     11578
     11574     11573     11576     11579     11575     11573     11576     11577
     11575     11573     11576     11578     11575     11573     11576     11579
     11576     11579     11582     11583     11576     11579     11582     11584
     11576     11579     11582     11585     11577     11576     11579     11580
     11577     11576     11579     11581     11577     11576     11579     11582
     11578     11576     11579     11580     11578     11576     11579     11581
     11578     11576     11579     11582     11579     11582     11585     11586
     11579     11582     11585     11587     11579     11582     11585     11588
     11580     11579     11582     11583     11580     11579     11582     11584
     11580     11579     11582     11585     11581     11579     11582     11583
     11581     11579     11582     11584     11581     11579     11582     11585
     11582     11585     11588     11589     11582     11585     11588     11590
     11582     11585     11588     11591     11583     11582     11585     11586
     11583     11582     11585     11587     11583     11582     11585     11588
     11584     11582     11585     11586     11584     11582     11585     11587
     11584     11582     11585     11588     11585     11588     11591     11592
     11585     11588     11591     11593     11586     11585     11588     11589
     11586     11585     11588     11590     11586     11585     11588     11591
     11587     11585     11588     11589     11587     11585     11588     11590
     11587     11585     11588     11591     11588     11591     11593     11594
     11588     11591     11593     11595     11589     11588     11591     11592
     11589     11588     11591     11593     11590     11588     11591     11592
     11590     11588     11591     11593     11591     11593     11595     11596
     11591     11593     11595     11597     11591     11593     11595     11598
     11592     11591     11593     11594     11592     11591     11593     11595
     11593     11595     11598     11599     11593     11595     11598     11600
     11593     11595     11598     11601     11594     11593     11595     11596
     11594     11593     11595     11597     11594     11593     11595     11598
     11595     11598     11601     11602     11595     11598     11601     11603
     11595     11598     11601     11604     11596     11595     11598     11599
     11596     11595     11598     11600     11596     11595     11598     11601
     11597     11595     11598     11599     11597     11595     11598     11600
     11597     11595     11598     11601     11598     11601     11604     11605
     11598     11601     11604     11606     11598     11601     11604     11607
     11599     11598     11601     11602     11599     11598     11601     11603
     11599     11598     11601     11604     11600     11598     11601     11602
     11600     11598     11601     11603     11600     11598     11601     11604
     11601     11604     11607     11608     11601     11604     11607     11609
     11601     11604     11607     11610     11602     11601     11604     11605
     11602     11601     11604     11606     11602     11601     11604     11607
     11603     11601     11604     11605     11603     11601     11604     11606
     11603     11601     11604     11607     11604     11607     11610     11611
     11604     11607     11610     11612     11604     11607     11610     11613
     11605     11604     11607     11608     11605     11604     11607     11609
     11605     11604     11607     11610     11606     11604     11607     11608
     11606     11604     11607     11609     11606     11604     11607     11610
     11607     11610     11613     11614     11607     11610     11613     11615
     11607     11610     11613     11616     11608     11607     11610     11611
     11608     11607     11610     11612     11608     11607     11610     11613
     11609     11607     11610     11611     11609     11607     11610     11612
     11609     11607     11610     11613     11610     11613     11616     11617
     11610     11613     11616     11618     11610     11613     11616     11619
     11611     11610     11613     11614     11611     11610     11613     11615
     11611     11610     11613     11616     11612     11610     11613     11614
     11612     11610     11613     11615     11612     11610     11613     11616
     11614     11613     11616     11617     11614     11613     11616     11618
     11614     11613     11616     11619     11615     11613     11616     11617
     11615     11613     11616     11618     11615     11613     11616     11619
     11620     11624     11627     11628     11620     11624     11627     11658
     11620     11666     11663     11658     11620     11666     11663     11664
     11620     11666     11663     11665     11621     11620     11622     11623
     11621     11620     11624     11625     11621     11620     11624     11626
     11621     11620     11624     11627     11621     11620     11666     11663
     11621     11620     11666     11667     11621     11620     11666     11668
     11622     11620     11624     11625     11622     11620     11624     11626
     11622     11620     11624     11627     11622     11620     11666     11663
     11622     11620     11666     11667     11622     11620     11666     11668
     11623     11622     11620     11624     11623     11622     11620     11666
     11624     11620     11666     11663     11624     11620     11666     11667
     11624     11620     11666     11668     11624     11627     11628     11629
     11624     11627     11628     11630     11624     11627     11658     11656
     11624     11627     11658     11659     11624     11627     11658     11663
     11625     11624     11620     11666     11625     11624     11627     11628
     11625     11624     11627     11658     11626     11624     11620     11666
     11626     11624     11627     11628     11626     11624     11627     11658
     11627     11624     11620     11666     11627     11628     11630     11631
     11627     11628     11630     11632     11627     11628     11630     11633
     11627     11658     11656     11633     11627     11658     11656     11653
     11627     11658     11656     11657     11627     11658     11659     11660
     11627     11658     11659     11661     11627     11658     11659     11662
     11627     11658     11663     11664     11627     11658     11663     11665
     11627     11658     11663     11666     11628     11627     11658     11656
     11628     11627     11658     11659     11628     11627     11658     11663
     11628     11630     11633     11634     11628     11630     11633     11635
     11628     11630     11633     11656     11629     11628     11627     11658
     11629     11628     11630     11631     11629     11628     11630     11632
     11629     11628     11630     11633     11630     11628     11627     11658
     11630     11633     11635     11636     11630     11633     11635     11637
     11630     11633     11635     11645     11630     11633     11656     11653
     11630     11633     11656     11657     11630     11633     11656     11658
     11631     11630     11633     11634     11631     11630     11633     11635
     11631     11630     11633     11656     11632     11630     11633     11634
     11632     11630     11633     11635     11632     11630     11633     11656
     11633     11635     11637     11638     11633     11635     11637     11639
     11633     11635     11637     11640     11633     11635     11645     11643
     11633     11635     11645     11646     11633     11635     11645     11650
     11633     11656     11653     11650     11633     11656     11653     11654
     11633     11656     11653     11655     11633     11656     11658     11659
     11633     11656     11658     11663     11634     11633     11635     11636
     11634     11633     11635     11637     11634     11633     11635     11645
     11634     11633     11656     11653     11634     11633     11656     11657
     11634     11633     11656     11658     11635     11633     11656     11653
     11635     11633     11656     11657     11635     11633     11656     11658
     11635     11637     11640     11641     11635     11637     11640     11642
     11635     11637     11640     11643     11635     11645     11643     11640
     11635     11645     11643     11644     11635     11645     11643     11669
     11635     11645     11646     11647     11635     11645     11646     11648
     11635     11645     11646     11649     11635     11645     11650     11651
     11635     11645     11650     11652     11635     11645     11650     11653
     11636     11635     11633     11656     11636     11635     11637     11638
     11636     11635     11637     11639     11636     11635     11637     11640
     11636     11635     11645     11643     11636     11635     11645     11646
     11636     11635     11645     11650     11637     11635     11633     11656
     11637     11635     11645     11643     11637     11635     11645     11646
     11637     11635     11645     11650     11637     11640     11643     11644
     11637     11640     11643     11645     11637     11640     11643     11669
     11638     11637     11635     11645     11638     11637     11640     11641
     11638     11637     11640     11642     11638     11637     11640     11643
     11639     11637     11635     11645     11639     11637     11640     11641
     11639     11637     11640     11642     11639     11637     11640     11643
     11640     11637     11635     11645     11640     11643     11645     11646
     11640     11643     11645     11650     11640     11643     11669     11670
     11640     11643     11669     11671     11640     11643     11669     11675
     11641     11640     11643     11644     11641     11640     11643     11645
     11641     11640     11643     11669     11642     11640     11643     11644
     11642     11640     11643     11645     11642     11640     11643     11669
     11643     11645     11646     11647     11643     11645     11646     11648
     11643     11645     11646     11649     11643     11645     11650     11651
     11643     11645     11650     11652     11643     11645     11650     11653
     11643     11669     11671     11672     11643     11669     11671     11673
     11643     11669     11671     11674     11643     11669     11675     11676
     11643     11669     11675     11677     11643     11669     11675     11678
     11644     11643     11645     11646     11644     11643     11645     11650
     11644     11643     11669     11670     11644     11643     11669     11671
     11644     11643     11669     11675     11645     11635     11633     11656
     11645     11643     11669     11670     11645     11643     11669     11671
     11645     11643     11669     11675     11645     11650     11653     11654
     11645     11650     11653     11655     11645     11650     11653     11656
     11646     11645     11643     11669     11646     11645     11650     11651
     11646     11645     11650     11652     11646     11645     11650     11653
     11647     11646     11645     11650     11648     11646     11645     11650
     11649     11646     11645     11650     11650     11645     11643     11669
     11650     11653     11656     11657     11650     11653     11656     11658
     11651     11650     11653     11654     11651     11650     11653     11655
     11651     11650     11653     11656     11652     11650     11653     11654
     11652     11650     11653     11655     11652     11650     11653     11656
     11653     11656     11658     11659     11653     11656     11658     11663
     11654     11653     11656     11657     11654     11653     11656     11658
     11655     11653     11656     11657     11655     11653     11656     11658
     11656     11658     11659     11660     11656     11658     11659     11661
     11656     11658     11659     11662     11656     11658     11663     11664
     11656     11658     11663     11665     11656     11658     11663     11666
     11657     11656     11658     11659     11657     11656     11658     11663
     11658     11663     11666     11667     11658     11663     11666     11668
     11659     11658     11663     11664     11659     11658     11663     11665
     11659     11658     11663     11666     11660     11659     11658     11663
     11661     11659     11658     11663     11662     11659     11658     11663
     11664     11663     11666     11667     11664     11663     11666     11668
     11665     11663     11666     11667     11665     11663     11666     11668
     11669     11675     11678     11679     11669     11675     11678     11680
     11669     11675     11678     11681     11670     11669     11671     11672
     11670     11669     11671     11673     11670     11669     11671     11674
     11670     11669     11675     11676     11670     11669     11675     11677
     11670     11669     11675     11678     11671     11669     11675     11676
     11671     11669     11675     11677     11671     11669     11675     11678
     11672     11671     11669     11675     11673     11671     11669     11675
     11674     11671     11669     11675     11675     11678     11681     11682
     11675     11678     11681     11683     11675     11678     11681     11684
     11676     11675     11678     11679     11676     11675     11678     11680
     11676     11675     11678     11681     11677     11675     11678     11679
     11677     11675     11678     11680     11677     11675     11678     11681
     11678     11681     11684     11685     11678     11681     11684     11686
     11678     11681     11684     11690     11679     11678     11681     11682
     11679     11678     11681     11683     11679     11678     11681     11684
     11680     11678     11681     11682     11680     11678     11681     11683
     11680     11678     11681     11684     11681     11684     11686     11687
     11681     11684     11686     11688     11681     11684     11686     11689
     11681     11684     11690     11691     11681     11684     11690     11692
     11681     11684     11690     11693     11682     11681     11684     11685
     11682     11681     11684     11686     11682     11681     11684     11690
     11683     11681     11684     11685     11683     11681     11684     11686
     11683     11681     11684     11690     11685     11684     11686     11687
     11685     11684     11686     11688     11685     11684     11686     11689
     11685     11684     11690     11691     11685     11684     11690     11692
     11685     11684     11690     11693     11686     11684     11690     11691
     11686     11684     11690     11692     11686     11684     11690     11693
     11687     11686     11684     11690     11688     11686     11684     11690
     11689     11686     11684     11690     11694     11707     11710     11711
     11694     11707     11710     11712     11694     11707     11710     11717
     11695     11694     11699     11700     11695     11694     11699     11701
     11695     11694     11699     11702     11695     11694     11703     11704
     11695     11694     11703     11705     11695     11694     11703     11706
     11695     11694     11707     11708     11695     11694     11707     11709
     11695     11694     11707     11710     11696     11695     11694     11699
     11696     11695     11694     11703     11696     11695     11694     11707
     11697     11695     11694     11699     11697     11695     11694     11703
     11697     11695     11694     11707     11698     11695     11694     11699
     11698     11695     11694     11703     11698     11695     11694     11707
     11699     11694     11703     11704     11699     11694     11703     11705
     11699     11694     11703     11706     11699     11694     11707     11708
     11699     11694     11707     11709     11699     11694     11707     11710
     11700     11699     11694     11703     11700     11699     11694     11707
     11701     11699     11694     11703     11701     11699     11694     11707
     11702     11699     11694     11703     11702     11699     11694     11707
     11703     11694     11707     11708     11703     11694     11707     11709
     11703     11694     11707     11710     11704     11703     11694     11707
     11705     11703     11694     11707     11706     11703     11694     11707
     11707     11710     11717     11713     11708     11707     11710     11711
     11708     11707     11710     11712     11708     11707     11710     11717
     11709     11707     11710     11711     11709     11707     11710     11712
     11709     11707     11710     11717     11710     11717     11713     11714
     11710     11717     11713     11715     11710     11717     11713     11716
     11711     11710     11717     11713     11712     11710     11717     11713
     11713     11716     11718     11719     11713     11716     11718     11720
     11713     11716     11718     11723     11714     11713     11716     11718
     11715     11713     11716     11718     11716     11718     11723     11721
     11716     11718     11723     11724     11716     11718     11723     11725
     11717     11713     11716     11718     11718     11723     11721     11722
     11718     11723     11721     11773     11718     11723     11725     11726
     11718     11723     11725     11727     11718     11723     11725     11729
     11719     11718     11723     11721     11719     11718     11723     11724
     11719     11718     11723     11725     11720     11718     11723     11721
     11720     11718     11723     11724     11720     11718     11723     11725
     11721     11723     11725     11726     11721     11723     11725     11727
     11721     11723     11725     11729     11721     11773     11775     11776
     11721     11773     11775     11777     11721     11773     11775     11778
     11722     11721     11723     11724     11722     11721     11723     11725
     11722     11721     11773     11774     11722     11721     11773     11775
     11723     11721     11773     11774     11723     11721     11773     11775
     11723     11725     11727     11728     11723     11725     11729     11730
     11723     11725     11729     11731     11724     11723     11721     11773
     11724     11723     11725     11726     11724     11723     11725     11727
     11724     11723     11725     11729     11725     11723     11721     11773
     11725     11729     11731     11732     11725     11729     11731     11733
     11726     11725     11727     11728     11726     11725     11729     11730
     11726     11725     11729     11731     11727     11725     11729     11730
     11727     11725     11729     11731     11728     11727     11725     11729
     11729     11731     11733     11734     11729     11731     11733     11735
     11729     11731     11733     11736     11730     11729     11731     11732
     11730     11729     11731     11733     11731     11733     11736     11737
     11731     11733     11736     11738     11731     11733     11736     11739
     11732     11731     11733     11734     11732     11731     11733     11735
     11732     11731     11733     11736     11733     11736     11739     11740
     11733     11736     11739     11741     11733     11736     11739     11742
     11734     11733     11736     11737     11734     11733     11736     11738
     11734     11733     11736     11739     11735     11733     11736     11737
     11735     11733     11736     11738     11735     11733     11736     11739
     11736     11739     11742     11743     11736     11739     11742     11744
     11736     11739     11742     11745     11737     11736     11739     11740
     11737     11736     11739     11741     11737     11736     11739     11742
     11738     11736     11739     11740     11738     11736     11739     11741
     11738     11736     11739     11742     11739     11742     11745     11746
     11739     11742     11745     11747     11739     11742     11745     11748
     11740     11739     11742     11743     11740     11739     11742     11744
     11740     11739     11742     11745     11741     11739     11742     11743
     11741     11739     11742     11744     11741     11739     11742     11745
     11742     11745     11748     11749     11742     11745     11748     11750
     11742     11745     11748     11751     11743     11742     11745     11746
     11743     11742     11745     11747     11743     11742     11745     11748
     11744     11742     11745     11746     11744     11742     11745     11747
     11744     11742     11745     11748     11745     11748     11751     11752
     11745     11748     11751     11753     11745     11748     11751     11754
     11746     11745     11748     11749     11746     11745     11748     11750
     11746     11745     11748     11751     11747     11745     11748     11749
     11747     11745     11748     11750     11747     11745     11748     11751
     11748     11751     11754     11755     11748     11751     11754     11756
     11748     11751     11754     11757     11749     11748     11751     11752
     11749     11748     11751     11753     11749     11748     11751     11754
     11750     11748     11751     11752     11750     11748     11751     11753
     11750     11748     11751     11754     11751     11754     11757     11758
     11751     11754     11757     11759     11751     11754     11757     11760
     11752     11751     11754     11755     11752     11751     11754     11756
     11752     11751     11754     11757     11753     11751     11754     11755
     11753     11751     11754     11756     11753     11751     11754     11757
     11754     11757     11760     11761     11754     11757     11760     11762
     11754     11757     11760     11763     11755     11754     11757     11758
     11755     11754     11757     11759     11755     11754     11757     11760
     11756     11754     11757     11758     11756     11754     11757     11759
     11756     11754     11757     11760     11757     11760     11763     11764
     11757     11760     11763     11765     11757     11760     11763     11766
     11758     11757     11760     11761     11758     11757     11760     11762
     11758     11757     11760     11763     11759     11757     11760     11761
     11759     11757     11760     11762     11759     11757     11760     11763
     11760     11763     11766     11767     11760     11763     11766     11768
     11760     11763     11766     11769     11761     11760     11763     11764
     11761     11760     11763     11765     11761     11760     11763     11766
     11762     11760     11763     11764     11762     11760     11763     11765
     11762     11760     11763     11766     11763     11766     11769     11770
     11763     11766     11769     11771     11763     11766     11769     11772
     11764     11763     11766     11767     11764     11763     11766     11768
     11764     11763     11766     11769     11765     11763     11766     11767
     11765     11763     11766     11768     11765     11763     11766     11769
     11767     11766     11769     11770     11767     11766     11769     11771
     11767     11766     11769     11772     11768     11766     11769     11770
     11768     11766     11769     11771     11768     11766     11769     11772
     11773     11775     11778     11779     11773     11775     11778     11780
     11773     11775     11778     11781     11774     11773     11775     11776
     11774     11773     11775     11777     11774     11773     11775     11778
     11775     11778     11781     11782     11775     11778     11781     11783
     11775     11778     11781     11784     11776     11775     11778     11779
     11776     11775     11778     11780     11776     11775     11778     11781
     11777     11775     11778     11779     11777     11775     11778     11780
     11777     11775     11778     11781     11778     11781     11784     11785
     11778     11781     11784     11786     11778     11781     11784     11787
     11779     11778     11781     11782     11779     11778     11781     11783
     11779     11778     11781     11784     11780     11778     11781     11782
     11780     11778     11781     11783     11780     11778     11781     11784
     11781     11784     11787     11788     11781     11784     11787     11789
     11781     11784     11787     11790     11782     11781     11784     11785
     11782     11781     11784     11786     11782     11781     11784     11787
     11783     11781     11784     11785     11783     11781     11784     11786
     11783     11781     11784     11787     11784     11787     11790     11791
     11784     11787     11790     11792     11784     11787     11790     11793
     11785     11784     11787     11788     11785     11784     11787     11789
     11785     11784     11787     11790     11786     11784     11787     11788
     11786     11784     11787     11789     11786     11784     11787     11790
     11787     11790     11793     11794     11787     11790     11793     11795
     11787     11790     11793     11796     11788     11787     11790     11791
     11788     11787     11790     11792     11788     11787     11790     11793
     11789     11787     11790     11791     11789     11787     11790     11792
     11789     11787     11790     11793     11790     11793     11796     11797
     11790     11793     11796     11798     11790     11793     11796     11799
     11791     11790     11793     11794     11791     11790     11793     11795
     11791     11790     11793     11796     11792     11790     11793     11794
     11792     11790     11793     11795     11792     11790     11793     11796
     11793     11796     11799     11800     11793     11796     11799     11801
     11793     11796     11799     11802     11794     11793     11796     11797
     11794     11793     11796     11798     11794     11793     11796     11799
     11795     11793     11796     11797     11795     11793     11796     11798
     11795     11793     11796     11799     11796     11799     11802     11803
     11796     11799     11802     11804     11796     11799     11802     11805
     11797     11796     11799     11800     11797     11796     11799     11801
     11797     11796     11799     11802     11798     11796     11799     11800
     11798     11796     11799     11801     11798     11796     11799     11802
     11799     11802     11805     11806     11799     11802     11805     11807
     11799     11802     11805     11808     11800     11799     11802     11803
     11800     11799     11802     11804     11800     11799     11802     11805
     11801     11799     11802     11803     11801     11799     11802     11804
     11801     11799     11802     11805     11802     11805     11808     11809
     11802     11805     11808     11810     11802     11805     11808     11811
     11803     11802     11805     11806     11803     11802     11805     11807
     11803     11802     11805     11808     11804     11802     11805     11806
     11804     11802     11805     11807     11804     11802     11805     11808
     11805     11808     11811     11812     11805     11808     11811     11813
     11805     11808     11811     11814     11806     11805     11808     11809
     11806     11805     11808     11810     11806     11805     11808     11811
     11807     11805     11808     11809     11807     11805     11808     11810
     11807     11805     11808     11811     11808     11811     11814     11815
     11808     11811     11814     11816     11808     11811     11814     11817
     11809     11808     11811     11812     11809     11808     11811     11813
     11809     11808     11811     11814     11810     11808     11811     11812
     11810     11808     11811     11813     11810     11808     11811     11814
     11811     11814     11817     11818     11811     11814     11817     11819
     11811     11814     11817     11820     11812     11811     11814     11815
     11812     11811     11814     11816     11812     11811     11814     11817
     11813     11811     11814     11815     11813     11811     11814     11816
     11813     11811     11814     11817     11814     11817     11820     11821
     11814     11817     11820     11822     11814     11817     11820     11823
     11815     11814     11817     11818     11815     11814     11817     11819
     11815     11814     11817     11820     11816     11814     11817     11818
     11816     11814     11817     11819     11816     11814     11817     11820
     11817     11820     11823     11824     11817     11820     11823     11825
     11817     11820     11823     11826     11818     11817     11820     11821
     11818     11817     11820     11822     11818     11817     11820     11823
     11819     11817     11820     11821     11819     11817     11820     11822
     11819     11817     11820     11823     11820     11823     11826     11827
     11820     11823     11826     11828     11820     11823     11826     11829
     11821     11820     11823     11824     11821     11820     11823     11825
     11821     11820     11823     11826     11822     11820     11823     11824
     11822     11820     11823     11825     11822     11820     11823     11826
     11823     11826     11829     11830     11823     11826     11829     11831
     11823     11826     11829     11832     11824     11823     11826     11827
     11824     11823     11826     11828     11824     11823     11826     11829
     11825     11823     11826     11827     11825     11823     11826     11828
     11825     11823     11826     11829     11826     11829     11832     11833
     11826     11829     11832     11834     11826     11829     11832     11835
     11827     11826     11829     11830     11827     11826     11829     11831
     11827     11826     11829     11832     11828     11826     11829     11830
     11828     11826     11829     11831     11828     11826     11829     11832
     11829     11832     11835     11836     11829     11832     11835     11837
     11829     11832     11835     11838     11830     11829     11832     11833
     11830     11829     11832     11834     11830     11829     11832     11835
     11831     11829     11832     11833     11831     11829     11832     11834
     11831     11829     11832     11835     11832     11835     11838     11839
     11832     11835     11838     11840     11832     11835     11838     11841
     11833     11832     11835     11836     11833     11832     11835     11837
     11833     11832     11835     11838     11834     11832     11835     11836
     11834     11832     11835     11837     11834     11832     11835     11838
     11836     11835     11838     11839     11836     11835     11838     11840
     11836     11835     11838     11841     11837     11835     11838     11839
     11837     11835     11838     11840     11837     11835     11838     11841
     11842     11846     11849     11850     11842     11846     11849     11851
     11842     11846     11849     11856     11843     11842     11846     11847
     11843     11842     11846     11848     11843     11842     11846     11849
     11844     11842     11846     11847     11844     11842     11846     11848
     11844     11842     11846     11849     11845     11842     11846     11847
     11845     11842     11846     11848     11845     11842     11846     11849
     11846     11849     11856     11852     11847     11846     11849     11850
     11847     11846     11849     11851     11847     11846     11849     11856
     11848     11846     11849     11850     11848     11846     11849     11851
     11848     11846     11849     11856     11849     11856     11852     11853
     11849     11856     11852     11854     11849     11856     11852     11855
     11850     11849     11856     11852     11851     11849     11856     11852
     11852     11855     11857     11858     11852     11855     11857     11859
     11852     11855     11857     11860     11853     11852     11855     11857
     11854     11852     11855     11857     11855     11857     11860     11861
     11855     11857     11860     11862     11855     11857     11860     11868
     11856     11852     11855     11857     11857     11860     11862     11863
     11857     11860     11868     11869     11857     11860     11868     11870
     11857     11860     11868     11871     11858     11857     11860     11861
     11858     11857     11860     11862     11858     11857     11860     11868
     11859     11857     11860     11861     11859     11857     11860     11862
     11859     11857     11860     11868     11860     11862     11863     11864
     11860     11862     11863     11865     11860     11868     11871     11872
     11861     11860     11862     11863     11861     11860     11868     11869
     11861     11860     11868     11870     11861     11860     11868     11871
     11862     11860     11868     11869     11862     11860     11868     11870
     11862     11860     11868     11871     11862     11863     11865     11866
     11862     11863     11865     11867     11862     11863     11865     11877
     11863     11862     11860     11868     11863     11865     11877     11878
     11863     11865     11877     11879     11863     11865     11877     11880
     11864     11863     11865     11866     11864     11863     11865     11867
     11864     11863     11865     11877     11865     11877     11880     11881
     11865     11877     11880     11882     11865     11877     11880     11883
     11866     11865     11877     11878     11866     11865     11877     11879
     11866     11865     11877     11880     11867     11865     11877     11878
     11867     11865     11877     11879     11867     11865     11877     11880
     11868     11871     11872     11873     11868     11871     11872     11874
     11869     11868     11871     11872     11870     11868     11871     11872
     11871     11872     11874     11875     11871     11872     11874     11876
     11871     11872     11874     11924     11872     11874     11924     11925
     11872     11874     11924     11926     11872     11874     11924     11927
     11873     11872     11874     11875     11873     11872     11874     11876
     11873     11872     11874     11924     11874     11924     11927     11928
     11874     11924     11927     11929     11874     11924     11927     11930
     11875     11874     11924     11925     11875     11874     11924     11926
     11875     11874     11924     11927     11876     11874     11924     11925
     11876     11874     11924     11926     11876     11874     11924     11927
     11877     11880     11883     11884     11877     11880     11883     11885
     11877     11880     11883     11886     11878     11877     11880     11881
     11878     11877     11880     11882     11878     11877     11880     11883
     11879     11877     11880     11881     11879     11877     11880     11882
     11879     11877     11880     11883     11880     11883     11886     11887
     11880     11883     11886     11888     11880     11883     11886     11889
     11881     11880     11883     11884     11881     11880     11883     11885
     11881     11880     11883     11886     11882     11880     11883     11884
     11882     11880     11883     11885     11882     11880     11883     11886
     11883     11886     11889     11890     11883     11886     11889     11891
     11883     11886     11889     11892     11884     11883     11886     11887
     11884     11883     11886     11888     11884     11883     11886     11889
     11885     11883     11886     11887     11885     11883     11886     11888
     11885     11883     11886     11889     11886     11889     11892     11893
     11886     11889     11892     11894     11886     11889     11892     11895
     11887     11886     11889     11890     11887     11886     11889     11891
     11887     11886     11889     11892     11888     11886     11889     11890
     11888     11886     11889     11891     11888     11886     11889     11892
     11889     11892     11895     11896     11889     11892     11895     11897
     11890     11889     11892     11893     11890     11889     11892     11894
     11890     11889     11892     11895     11891     11889     11892     11893
     11891     11889     11892     11894     11891     11889     11892     11895
     11892     11895     11897     11898     11892     11895     11897     11899
     11893     11892     11895     11896     11893     11892     11895     11897
     11894     11892     11895     11896     11894     11892     11895     11897
     11895     11897     11899     11900     11895     11897     11899     11901
     11895     11897     11899     11902     11896     11895     11897     11898
     11896     11895     11897     11899     11897     11899     11902     11903
     11897     11899     11902     11904     11897     11899     11902     11905
     11898     11897     11899     11900     11898     11897     11899     11901
     11898     11897     11899     11902     11899     11902     11905     11906
     11899     11902     11905     11907     11899     11902     11905     11908
     11900     11899     11902     11903     11900     11899     11902     11904
     11900     11899     11902     11905     11901     11899     11902     11903
     11901     11899     11902     11904     11901     11899     11902     11905
     11902     11905     11908     11909     11902     11905     11908     11910
     11902     11905     11908     11911     11903     11902     11905     11906
     11903     11902     11905     11907     11903     11902     11905     11908
     11904     11902     11905     11906     11904     11902     11905     11907
     11904     11902     11905     11908     11905     11908     11911     11912
     11905     11908     11911     11913     11905     11908     11911     11914
     11906     11905     11908     11909     11906     11905     11908     11910
     11906     11905     11908     11911     11907     11905     11908     11909
     11907     11905     11908     11910     11907     11905     11908     11911
     11908     11911     11914     11915     11908     11911     11914     11916
     11908     11911     11914     11917     11909     11908     11911     11912
     11909     11908     11911     11913     11909     11908     11911     11914
     11910     11908     11911     11912     11910     11908     11911     11913
     11910     11908     11911     11914     11911     11914     11917     11918
     11911     11914     11917     11919     11911     11914     11917     11920
     11912     11911     11914     11915     11912     11911     11914     11916
     11912     11911     11914     11917     11913     11911     11914     11915
     11913     11911     11914     11916     11913     11911     11914     11917
     11914     11917     11920     11921     11914     11917     11920     11922
     11914     11917     11920     11923     11915     11914     11917     11918
     11915     11914     11917     11919     11915     11914     11917     11920
     11916     11914     11917     11918     11916     11914     11917     11919
     11916     11914     11917     11920     11918     11917     11920     11921
     11918     11917     11920     11922     11918     11917     11920     11923
     11919     11917     11920     11921     11919     11917     11920     11922
     11919     11917     11920     11923     11924     11927     11930     11931
     11924     11927     11930     11932     11924     11927     11930     11933
     11925     11924     11927     11928     11925     11924     11927     11929
     11925     11924     11927     11930     11926     11924     11927     11928
     11926     11924     11927     11929     11926     11924     11927     11930
     11927     11930     11933     11934     11927     11930     11933     11935
     11927     11930     11933     11936     11928     11927     11930     11931
     11928     11927     11930     11932     11928     11927     11930     11933
     11929     11927     11930     11931     11929     11927     11930     11932
     11929     11927     11930     11933     11930     11933     11936     11937
     11930     11933     11936     11938     11930     11933     11936     11939
     11931     11930     11933     11934     11931     11930     11933     11935
     11931     11930     11933     11936     11932     11930     11933     11934
     11932     11930     11933     11935     11932     11930     11933     11936
     11933     11936     11939     11940     11933     11936     11939     11941
     11933     11936     11939     11942     11934     11933     11936     11937
     11934     11933     11936     11938     11934     11933     11936     11939
     11935     11933     11936     11937     11935     11933     11936     11938
     11935     11933     11936     11939     11936     11939     11942     11943
     11936     11939     11942     11944     11937     11936     11939     11940
     11937     11936     11939     11941     11937     11936     11939     11942
     11938     11936     11939     11940     11938     11936     11939     11941
     11938     11936     11939     11942     11939     11942     11944     11945
     11939     11942     11944     11946     11940     11939     11942     11943
     11940     11939     11942     11944     11941     11939     11942     11943
     11941     11939     11942     11944     11942     11944     11946     11947
     11942     11944     11946     11948     11942     11944     11946     11949
     11943     11942     11944     11945     11943     11942     11944     11946
     11944     11946     11949     11950     11944     11946     11949     11951
     11944     11946     11949     11952     11945     11944     11946     11947
     11945     11944     11946     11948     11945     11944     11946     11949
     11946     11949     11952     11953     11946     11949     11952     11954
     11946     11949     11952     11955     11947     11946     11949     11950
     11947     11946     11949     11951     11947     11946     11949     11952
     11948     11946     11949     11950     11948     11946     11949     11951
     11948     11946     11949     11952     11949     11952     11955     11956
     11949     11952     11955     11957     11949     11952     11955     11958
     11950     11949     11952     11953     11950     11949     11952     11954
     11950     11949     11952     11955     11951     11949     11952     11953
     11951     11949     11952     11954     11951     11949     11952     11955
     11952     11955     11958     11959     11952     11955     11958     11960
     11952     11955     11958     11961     11953     11952     11955     11956
     11953     11952     11955     11957     11953     11952     11955     11958
     11954     11952     11955     11956     11954     11952     11955     11957
     11954     11952     11955     11958     11955     11958     11961     11962
     11955     11958     11961     11963     11955     11958     11961     11964
     11956     11955     11958     11959     11956     11955     11958     11960
     11956     11955     11958     11961     11957     11955     11958     11959
     11957     11955     11958     11960     11957     11955     11958     11961
     11958     11961     11964     11965     11958     11961     11964     11966
     11958     11961     11964     11967     11959     11958     11961     11962
     11959     11958     11961     11963     11959     11958     11961     11964
     11960     11958     11961     11962     11960     11958     11961     11963
     11960     11958     11961     11964     11961     11964     11967     11968
     11961     11964     11967     11969     11961     11964     11967     11970
     11962     11961     11964     11965     11962     11961     11964     11966
     11962     11961     11964     11967     11963     11961     11964     11965
     11963     11961     11964     11966     11963     11961     11964     11967
     11965     11964     11967     11968     11965     11964     11967     11969
     11965     11964     11967     11970     11966     11964     11967     11968
     11966     11964     11967     11969     11966     11964     11967     11970
     11971     11975     11978     11979     11971     11975     11978     11980
     11971     11975     11978     11985     11972     11971     11975     11976
     11972     11971     11975     11977     11972     11971     11975     11978
     11973     11971     11975     11976     11973     11971     11975     11977
     11973     11971     11975     11978     11974     11971     11975     11976
     11974     11971     11975     11977     11974     11971     11975     11978
     11975     11978     11985     11981     11976     11975     11978     11979
     11976     11975     11978     11980     11976     11975     11978     11985
     11977     11975     11978     11979     11977     11975     11978     11980
     11977     11975     11978     11985     11978     11985     11981     11982
     11978     11985     11981     11983     11978     11985     11981     11984
     11979     11978     11985     11981     11980     11978     11985     11981
     11981     11984     11986     11987     11981     11984     11986     11988
     11981     11984     11986     11989     11982     11981     11984     11986
     11983     11981     11984     11986     11984     11986     11989     11990
     11984     11986     11989     11991     11984     11986     11989     11997
     11985     11981     11984     11986     11986     11989     11991     11992
     11986     11989     11997     11998     11986     11989     11997     11999
     11986     11989     11997     12000     11987     11986     11989     11990
     11987     11986     11989     11991     11987     11986     11989     11997
     11988     11986     11989     11990     11988     11986     11989     11991
     11988     11986     11989     11997     11989     11991     11992     11993
     11989     11991     11992     11994     11989     11997     12000     12001
     11990     11989     11991     11992     11990     11989     11997     11998
     11990     11989     11997     11999     11990     11989     11997     12000
     11991     11989     11997     11998     11991     11989     11997     11999
     11991     11989     11997     12000     11991     11992     11994     11995
     11991     11992     11994     11996     11991     11992     11994     12006
     11992     11991     11989     11997     11992     11994     12006     12007
     11992     11994     12006     12008     11992     11994     12006     12009
     11993     11992     11994     11995     11993     11992     11994     11996
     11993     11992     11994     12006     11994     12006     12009     12010
     11994     12006     12009     12011     11994     12006     12009     12012
     11995     11994     12006     12007     11995     11994     12006     12008
     11995     11994     12006     12009     11996     11994     12006     12007
     11996     11994     12006     12008     11996     11994     12006     12009
     11997     12000     12001     12002     11997     12000     12001     12003
     11998     11997     12000     12001     11999     11997     12000     12001
     12000     12001     12003     12004     12000     12001     12003     12005
     12000     12001     12003     12053     12001     12003     12053     12054
     12001     12003     12053     12055     12001     12003     12053     12056
     12002     12001     12003     12004     12002     12001     12003     12005
     12002     12001     12003     12053     12003     12053     12056     12057
     12003     12053     12056     12058     12003     12053     12056     12059
     12004     12003     12053     12054     12004     12003     12053     12055
     12004     12003     12053     12056     12005     12003     12053     12054
     12005     12003     12053     12055     12005     12003     12053     12056
     12006     12009     12012     12013     12006     12009     12012     12014
     12006     12009     12012     12015     12007     12006     12009     12010
     12007     12006     12009     12011     12007     12006     12009     12012
     12008     12006     12009     12010     12008     12006     12009     12011
     12008     12006     12009     12012     12009     12012     12015     12016
     12009     12012     12015     12017     12009     12012     12015     12018
     12010     12009     12012     12013     12010     12009     12012     12014
     12010     12009     12012     12015     12011     12009     12012     12013
     12011     12009     12012     12014     12011     12009     12012     12015
     12012     12015     12018     12019     12012     12015     12018     12020
     12012     12015     12018     12021     12013     12012     12015     12016
     12013     12012     12015     12017     12013     12012     12015     12018
     12014     12012     12015     12016     12014     12012     12015     12017
     12014     12012     12015     12018     12015     12018     12021     12022
     12015     12018     12021     12023     12015     12018     12021     12024
     12016     12015     12018     12019     12016     12015     12018     12020
     12016     12015     12018     12021     12017     12015     12018     12019
     12017     12015     12018     12020     12017     12015     12018     12021
     12018     12021     12024     12025     12018     12021     12024     12026
     12019     12018     12021     12022     12019     12018     12021     12023
     12019     12018     12021     12024     12020     12018     12021     12022
     12020     12018     12021     12023     12020     12018     12021     12024
     12021     12024     12026     12027     12021     12024     12026     12028
     12022     12021     12024     12025     12022     12021     12024     12026
     12023     12021     12024     12025     12023     12021     12024     12026
     12024     12026     12028     12029     12024     12026     12028     12030
     12024     12026     12028     12031     12025     12024     12026     12027
     12025     12024     12026     12028     12026     12028     12031     12032
     12026     12028     12031     12033     12026     12028     12031     12034
     12027     12026     12028     12029     12027     12026     12028     12030
     12027     12026     12028     12031     12028     12031     12034     12035
     12028     12031     12034     12036     12028     12031     12034     12037
     12029     12028     12031     12032     12029     12028     12031     12033
     12029     12028     12031     12034     12030     12028     12031     12032
     12030     12028     12031     12033     12030     12028     12031     12034
     12031     12034     12037     12038     12031     12034     12037     12039
     12031     12034     12037     12040     12032     12031     12034     12035
     12032     12031     12034     12036     12032     12031     12034     12037
     12033     12031     12034     12035     12033     12031     12034     12036
     12033     12031     12034     12037     12034     12037     12040     12041
     12034     12037     12040     12042     12034     12037     12040     12043
     12035     12034     12037     12038     12035     12034     12037     12039
     12035     12034     12037     12040     12036     12034     12037     12038
     12036     12034     12037     12039     12036     12034     12037     12040
     12037     12040     12043     12044     12037     12040     12043     12045
     12037     12040     12043     12046     12038     12037     12040     12041
     12038     12037     12040     12042     12038     12037     12040     12043
     12039     12037     12040     12041     12039     12037     12040     12042
     12039     12037     12040     12043     12040     12043     12046     12047
     12040     12043     12046     12048     12040     12043     12046     12049
     12041     12040     12043     12044     12041     12040     12043     12045
     12041     12040     12043     12046     12042     12040     12043     12044
     12042     12040     12043     12045     12042     12040     12043     12046
     12043     12046     12049     12050     12043     12046     12049     12051
     12043     12046     12049     12052     12044     12043     12046     12047
     12044     12043     12046     12048     12044     12043     12046     12049
     12045     12043     12046     12047     12045     12043     12046     12048
     12045     12043     12046     12049     12047     12046     12049     12050
     12047     12046     12049     12051     12047     12046     12049     12052
     12048     12046     12049     12050     12048     12046     12049     12051
     12048     12046     12049     12052     12053     12056     12059     12060
     12053     12056     12059     12061     12053     12056     12059     12062
     12054     12053     12056     12057     12054     12053     12056     12058
     12054     12053     12056     12059     12055     12053     12056     12057
     12055     12053     12056     12058     12055     12053     12056     12059
     12056     12059     12062     12063     12056     12059     12062     12064
     12056     12059     12062     12065     12057     12056     12059     12060
     12057     12056     12059     12061     12057     12056     12059     12062
     12058     12056     12059     12060     12058     12056     12059     12061
     12058     12056     12059     12062     12059     12062     12065     12066
     12059     12062     12065     12067     12059     12062     12065     12068
     12060     12059     12062     12063     12060     12059     12062     12064
     12060     12059     12062     12065     12061     12059     12062     12063
     12061     12059     12062     12064     12061     12059     12062     12065
     12062     12065     12068     12069     12062     12065     12068     12070
     12062     12065     12068     12071     12063     12062     12065     12066
     12063     12062     12065     12067     12063     12062     12065     12068
     12064     12062     12065     12066     12064     12062     12065     12067
     12064     12062     12065     12068     12065     12068     12071     12072
     12065     12068     12071     12073     12066     12065     12068     12069
     12066     12065     12068     12070     12066     12065     12068     12071
     12067     12065     12068     12069     12067     12065     12068     12070
     12067     12065     12068     12071     12068     12071     12073     12074
     12068     12071     12073     12075     12069     12068     12071     12072
     12069     12068     12071     12073     12070     12068     12071     12072
     12070     12068     12071     12073     12071     12073     12075     12076
     12071     12073     12075     12077     12071     12073     12075     12078
     12072     12071     12073     12074     12072     12071     12073     12075
     12073     12075     12078     12079     12073     12075     12078     12080
     12073     12075     12078     12081     12074     12073     12075     12076
     12074     12073     12075     12077     12074     12073     12075     12078
     12075     12078     12081     12082     12075     12078     12081     12083
     12075     12078     12081     12084     12076     12075     12078     12079
     12076     12075     12078     12080     12076     12075     12078     12081
     12077     12075     12078     12079     12077     12075     12078     12080
     12077     12075     12078     12081     12078     12081     12084     12085
     12078     12081     12084     12086     12078     12081     12084     12087
     12079     12078     12081     12082     12079     12078     12081     12083
     12079     12078     12081     12084     12080     12078     12081     12082
     12080     12078     12081     12083     12080     12078     12081     12084
     12081     12084     12087     12088     12081     12084     12087     12089
     12081     12084     12087     12090     12082     12081     12084     12085
     12082     12081     12084     12086     12082     12081     12084     12087
     12083     12081     12084     12085     12083     12081     12084     12086
     12083     12081     12084     12087     12084     12087     12090     12091
     12084     12087     12090     12092     12084     12087     12090     12093
     12085     12084     12087     12088     12085     12084     12087     12089
     12085     12084     12087     12090     12086     12084     12087     12088
     12086     12084     12087     12089     12086     12084     12087     12090
     12087     12090     12093     12094     12087     12090     12093     12095
     12087     12090     12093     12096     12088     12087     12090     12091
     12088     12087     12090     12092     12088     12087     12090     12093
     12089     12087     12090     12091     12089     12087     12090     12092
     12089     12087     12090     12093     12090     12093     12096     12097
     12090     12093     12096     12098     12090     12093     12096     12099
     12091     12090     12093     12094     12091     12090     12093     12095
     12091     12090     12093     12096     12092     12090     12093     12094
     12092     12090     12093     12095     12092     12090     12093     12096
     12094     12093     12096     12097     12094     12093     12096     12098
     12094     12093     12096     12099     12095     12093     12096     12097
     12095     12093     12096     12098     12095     12093     12096     12099
     12100     12113     12116     12117     12100     12113     12116     12118
     12100     12113     12116     12123     12101     12100     12105     12106
     12101     12100     12105     12107     12101     12100     12105     12108
     12101     12100     12109     12110     12101     12100     12109     12111
     12101     12100     12109     12112     12101     12100     12113     12114
     12101     12100     12113     12115     12101     12100     12113     12116
     12102     12101     12100     12105     12102     12101     12100     12109
     12102     12101     12100     12113     12103     12101     12100     12105
     12103     12101     12100     12109     12103     12101     12100     12113
     12104     12101     12100     12105     12104     12101     12100     12109
     12104     12101     12100     12113     12105     12100     12109     12110
     12105     12100     12109     12111     12105     12100     12109     12112
     12105     12100     12113     12114     12105     12100     12113     12115
     12105     12100     12113     12116     12106     12105     12100     12109
     12106     12105     12100     12113     12107     12105     12100     12109
     12107     12105     12100     12113     12108     12105     12100     12109
     12108     12105     12100     12113     12109     12100     12113     12114
     12109     12100     12113     12115     12109     12100     12113     12116
     12110     12109     12100     12113     12111     12109     12100     12113
     12112     12109     12100     12113     12113     12116     12123     12119
     12114     12113     12116     12117     12114     12113     12116     12118
     12114     12113     12116     12123     12115     12113     12116     12117
     12115     12113     12116     12118     12115     12113     12116     12123
     12116     12123     12119     12120     12116     12123     12119     12121
     12116     12123     12119     12122     12117     12116     12123     12119
     12118     12116     12123     12119     12119     12122     12124     12125
     12119     12122     12124     12126     12119     12122     12124     12129
     12120     12119     12122     12124     12121     12119     12122     12124
     12122     12124     12129     12127     12122     12124     12129     12130
     12122     12124     12129     12131     12123     12119     12122     12124
     12124     12129     12127     12128     12124     12129     12127     12179
     12124     12129     12131     12132     12124     12129     12131     12133
     12124     12129     12131     12135     12125     12124     12129     12127
     12125     12124     12129     12130     12125     12124     12129     12131
     12126     12124     12129     12127     12126     12124     12129     12130
     12126     12124     12129     12131     12127     12129     12131     12132
     12127     12129     12131     12133     12127     12129     12131     12135
     12127     12179     12181     12182     12127     12179     12181     12183
     12127     12179     12181     12184     12128     12127     12129     12130
     12128     12127     12129     12131     12128     12127     12179     12180
     12128     12127     12179     12181     12129     12127     12179     12180
     12129     12127     12179     12181     12129     12131     12133     12134
     12129     12131     12135     12136     12129     12131     12135     12137
     12130     12129     12127     12179     12130     12129     12131     12132
     12130     12129     12131     12133     12130     12129     12131     12135
     12131     12129     12127     12179     12131     12135     12137     12138
     12131     12135     12137     12139     12132     12131     12133     12134
     12132     12131     12135     12136     12132     12131     12135     12137
     12133     12131     12135     12136     12133     12131     12135     12137
     12134     12133     12131     12135     12135     12137     12139     12140
     12135     12137     12139     12141     12135     12137     12139     12142
     12136     12135     12137     12138     12136     12135     12137     12139
     12137     12139     12142     12143     12137     12139     12142     12144
     12137     12139     12142     12145     12138     12137     12139     12140
     12138     12137     12139     12141     12138     12137     12139     12142
     12139     12142     12145     12146     12139     12142     12145     12147
     12139     12142     12145     12148     12140     12139     12142     12143
     12140     12139     12142     12144     12140     12139     12142     12145
     12141     12139     12142     12143     12141     12139     12142     12144
     12141     12139     12142     12145     12142     12145     12148     12149
     12142     12145     12148     12150     12142     12145     12148     12151
     12143     12142     12145     12146     12143     12142     12145     12147
     12143     12142     12145     12148     12144     12142     12145     12146
     12144     12142     12145     12147     12144     12142     12145     12148
     12145     12148     12151     12152     12145     12148     12151     12153
     12145     12148     12151     12154     12146     12145     12148     12149
     12146     12145     12148     12150     12146     12145     12148     12151
     12147     12145     12148     12149     12147     12145     12148     12150
     12147     12145     12148     12151     12148     12151     12154     12155
     12148     12151     12154     12156     12148     12151     12154     12157
     12149     12148     12151     12152     12149     12148     12151     12153
     12149     12148     12151     12154     12150     12148     12151     12152
     12150     12148     12151     12153     12150     12148     12151     12154
     12151     12154     12157     12158     12151     12154     12157     12159
     12151     12154     12157     12160     12152     12151     12154     12155
     12152     12151     12154     12156     12152     12151     12154     12157
     12153     12151     12154     12155     12153     12151     12154     12156
     12153     12151     12154     12157     12154     12157     12160     12161
     12154     12157     12160     12162     12154     12157     12160     12163
     12155     12154     12157     12158     12155     12154     12157     12159
     12155     12154     12157     12160     12156     12154     12157     12158
     12156     12154     12157     12159     12156     12154     12157     12160
     12157     12160     12163     12164     12157     12160     12163     12165
     12157     12160     12163     12166     12158     12157     12160     12161
     12158     12157     12160     12162     12158     12157     12160     12163
     12159     12157     12160     12161     12159     12157     12160     12162
     12159     12157     12160     12163     12160     12163     12166     12167
     12160     12163     12166     12168     12160     12163     12166     12169
     12161     12160     12163     12164     12161     12160     12163     12165
     12161     12160     12163     12166     12162     12160     12163     12164
     12162     12160     12163     12165     12162     12160     12163     12166
     12163     12166     12169     12170     12163     12166     12169     12171
     12163     12166     12169     12172     12164     12163     12166     12167
     12164     12163     12166     12168     12164     12163     12166     12169
     12165     12163     12166     12167     12165     12163     12166     12168
     12165     12163     12166     12169     12166     12169     12172     12173
     12166     12169     12172     12174     12166     12169     12172     12175
     12167     12166     12169     12170     12167     12166     12169     12171
     12167     12166     12169     12172     12168     12166     12169     12170
     12168     12166     12169     12171     12168     12166     12169     12172
     12169     12172     12175     12176     12169     12172     12175     12177
     12169     12172     12175     12178     12170     12169     12172     12173
     12170     12169     12172     12174     12170     12169     12172     12175
     12171     12169     12172     12173     12171     12169     12172     12174
     12171     12169     12172     12175     12173     12172     12175     12176
     12173     12172     12175     12177     12173     12172     12175     12178
     12174     12172     12175     12176     12174     12172     12175     12177
     12174     12172     12175     12178     12179     12181     12184     12185
     12179     12181     12184     12186     12179     12181     12184     12187
     12180     12179     12181     12182     12180     12179     12181     12183
     12180     12179     12181     12184     12181     12184     12187     12188
     12181     12184     12187     12189     12181     12184     12187     12190
     12182     12181     12184     12185     12182     12181     12184     12186
     12182     12181     12184     12187     12183     12181     12184     12185
     12183     12181     12184     12186     12183     12181     12184     12187
     12184     12187     12190     12191     12184     12187     12190     12192
     12184     12187     12190     12193     12185     12184     12187     12188
     12185     12184     12187     12189     12185     12184     12187     12190
     12186     12184     12187     12188     12186     12184     12187     12189
     12186     12184     12187     12190     12187     12190     12193     12194
     12187     12190     12193     12195     12187     12190     12193     12196
     12188     12187     12190     12191     12188     12187     12190     12192
     12188     12187     12190     12193     12189     12187     12190     12191
     12189     12187     12190     12192     12189     12187     12190     12193
     12190     12193     12196     12197     12190     12193     12196     12198
     12190     12193     12196     12199     12191     12190     12193     12194
     12191     12190     12193     12195     12191     12190     12193     12196
     12192     12190     12193     12194     12192     12190     12193     12195
     12192     12190     12193     12196     12193     12196     12199     12200
     12193     12196     12199     12201     12193     12196     12199     12202
     12194     12193     12196     12197     12194     12193     12196     12198
     12194     12193     12196     12199     12195     12193     12196     12197
     12195     12193     12196     12198     12195     12193     12196     12199
     12196     12199     12202     12203     12196     12199     12202     12204
     12196     12199     12202     12205     12197     12196     12199     12200
     12197     12196     12199     12201     12197     12196     12199     12202
     12198     12196     12199     12200     12198     12196     12199     12201
     12198     12196     12199     12202     12199     12202     12205     12206
     12199     12202     12205     12207     12199     12202     12205     12208
     12200     12199     12202     12203     12200     12199     12202     12204
     12200     12199     12202     12205     12201     12199     12202     12203
     12201     12199     12202     12204     12201     12199     12202     12205
     12202     12205     12208     12209     12202     12205     12208     12210
     12202     12205     12208     12211     12203     12202     12205     12206
     12203     12202     12205     12207     12203     12202     12205     12208
     12204     12202     12205     12206     12204     12202     12205     12207
     12204     12202     12205     12208     12205     12208     12211     12212
     12205     12208     12211     12213     12205     12208     12211     12214
     12206     12205     12208     12209     12206     12205     12208     12210
     12206     12205     12208     12211     12207     12205     12208     12209
     12207     12205     12208     12210     12207     12205     12208     12211
     12208     12211     12214     12215     12208     12211     12214     12216
     12208     12211     12214     12217     12209     12208     12211     12212
     12209     12208     12211     12213     12209     12208     12211     12214
     12210     12208     12211     12212     12210     12208     12211     12213
     12210     12208     12211     12214     12211     12214     12217     12218
     12211     12214     12217     12219     12211     12214     12217     12220
     12212     12211     12214     12215     12212     12211     12214     12216
     12212     12211     12214     12217     12213     12211     12214     12215
     12213     12211     12214     12216     12213     12211     12214     12217
     12214     12217     12220     12221     12214     12217     12220     12222
     12214     12217     12220     12223     12215     12214     12217     12218
     12215     12214     12217     12219     12215     12214     12217     12220
     12216     12214     12217     12218     12216     12214     12217     12219
     12216     12214     12217     12220     12217     12220     12223     12224
     12217     12220     12223     12225     12217     12220     12223     12226
     12218     12217     12220     12221     12218     12217     12220     12222
     12218     12217     12220     12223     12219     12217     12220     12221
     12219     12217     12220     12222     12219     12217     12220     12223
     12220     12223     12226     12227     12220     12223     12226     12228
     12220     12223     12226     12229     12221     12220     12223     12224
     12221     12220     12223     12225     12221     12220     12223     12226
     12222     12220     12223     12224     12222     12220     12223     12225
     12222     12220     12223     12226     12223     12226     12229     12230
     12223     12226     12229     12231     12223     12226     12229     12232
     12224     12223     12226     12227     12224     12223     12226     12228
     12224     12223     12226     12229     12225     12223     12226     12227
     12225     12223     12226     12228     12225     12223     12226     12229
     12226     12229     12232     12233     12226     12229     12232     12234
     12226     12229     12232     12235     12227     12226     12229     12230
     12227     12226     12229     12231     12227     12226     12229     12232
     12228     12226     12229     12230     12228     12226     12229     12231
     12228     12226     12229     12232     12229     12232     12235     12236
     12229     12232     12235     12237     12229     12232     12235     12238
     12230     12229     12232     12233     12230     12229     12232     12234
     12230     12229     12232     12235     12231     12229     12232     12233
     12231     12229     12232     12234     12231     12229     12232     12235
     12232     12235     12238     12239     12232     12235     12238     12240
     12232     12235     12238     12241     12233     12232     12235     12236
     12233     12232     12235     12237     12233     12232     12235     12238
     12234     12232     12235     12236     12234     12232     12235     12237
     12234     12232     12235     12238     12235     12238     12241     12242
     12235     12238     12241     12243     12235     12238     12241     12244
     12236     12235     12238     12239     12236     12235     12238     12240
     12236     12235     12238     12241     12237     12235     12238     12239
     12237     12235     12238     12240     12237     12235     12238     12241
     12238     12241     12244     12245     12238     12241     12244     12246
     12238     12241     12244     12247     12239     12238     12241     12242
     12239     12238     12241     12243     12239     12238     12241     12244
     12240     12238     12241     12242     12240     12238     12241     12243
     12240     12238     12241     12244     12242     12241     12244     12245
     12242     12241     12244     12246     12242     12241     12244     12247
     12243     12241     12244     12245     12243     12241     12244     12246
     12243     12241     12244     12247     12248     12252     12255     12256
     12248     12252     12255     12257     12248     12252     12255     12262
     12249     12248     12252     12253     12249     12248     12252     12254
     12249     12248     12252     12255     12250     12248     12252     12253
     12250     12248     12252     12254     12250     12248     12252     12255
     12251     12248     12252     12253     12251     12248     12252     12254
     12251     12248     12252     12255     12252     12255     12262     12258
     12253     12252     12255     12256     12253     12252     12255     12257
     12253     12252     12255     12262     12254     12252     12255     12256
     12254     12252     12255     12257     12254     12252     12255     12262
     12255     12262     12258     12259     12255     12262     12258     12260
     12255     12262     12258     12261     12256     12255     12262     12258
     12257     12255     12262     12258     12258     12261     12263     12264
     12258     12261     12263     12265     12258     12261     12263     12266
     12259     12258     12261     12263     12260     12258     12261     12263
     12261     12263     12266     12267     12261     12263     12266     12268
     12261     12263     12266     12274     12262     12258     12261     12263
     12263     12266     12268     12269     12263     12266     12274     12275
     12263     12266     12274     12276     12263     12266     12274     12277
     12264     12263     12266     12267     12264     12263     12266     12268
     12264     12263     12266     12274     12265     12263     12266     12267
     12265     12263     12266     12268     12265     12263     12266     12274
     12266     12268     12269     12270     12266     12268     12269     12271
     12266     12274     12277     12278     12267     12266     12268     12269
     12267     12266     12274     12275     12267     12266     12274     12276
     12267     12266     12274     12277     12268     12266     12274     12275
     12268     12266     12274     12276     12268     12266     12274     12277
     12268     12269     12271     12272     12268     12269     12271     12273
     12268     12269     12271     12283     12269     12268     12266     12274
     12269     12271     12283     12284     12269     12271     12283     12285
     12269     12271     12283     12286     12270     12269     12271     12272
     12270     12269     12271     12273     12270     12269     12271     12283
     12271     12283     12286     12287     12271     12283     12286     12288
     12271     12283     12286     12289     12272     12271     12283     12284
     12272     12271     12283     12285     12272     12271     12283     12286
     12273     12271     12283     12284     12273     12271     12283     12285
     12273     12271     12283     12286     12274     12277     12278     12279
     12274     12277     12278     12280     12275     12274     12277     12278
     12276     12274     12277     12278     12277     12278     12280     12281
     12277     12278     12280     12282     12277     12278     12280     12330
     12278     12280     12330     12331     12278     12280     12330     12332
     12278     12280     12330     12333     12279     12278     12280     12281
     12279     12278     12280     12282     12279     12278     12280     12330
     12280     12330     12333     12334     12280     12330     12333     12335
     12280     12330     12333     12336     12281     12280     12330     12331
     12281     12280     12330     12332     12281     12280     12330     12333
     12282     12280     12330     12331     12282     12280     12330     12332
     12282     12280     12330     12333     12283     12286     12289     12290
     12283     12286     12289     12291     12283     12286     12289     12292
     12284     12283     12286     12287     12284     12283     12286     12288
     12284     12283     12286     12289     12285     12283     12286     12287
     12285     12283     12286     12288     12285     12283     12286     12289
     12286     12289     12292     12293     12286     12289     12292     12294
     12286     12289     12292     12295     12287     12286     12289     12290
     12287     12286     12289     12291     12287     12286     12289     12292
     12288     12286     12289     12290     12288     12286     12289     12291
     12288     12286     12289     12292     12289     12292     12295     12296
     12289     12292     12295     12297     12289     12292     12295     12298
     12290     12289     12292     12293     12290     12289     12292     12294
     12290     12289     12292     12295     12291     12289     12292     12293
     12291     12289     12292     12294     12291     12289     12292     12295
     12292     12295     12298     12299     12292     12295     12298     12300
     12292     12295     12298     12301     12293     12292     12295     12296
     12293     12292     12295     12297     12293     12292     12295     12298
     12294     12292     12295     12296     12294     12292     12295     12297
     12294     12292     12295     12298     12295     12298     12301     12302
     12295     12298     12301     12303     12296     12295     12298     12299
     12296     12295     12298     12300     12296     12295     12298     12301
     12297     12295     12298     12299     12297     12295     12298     12300
     12297     12295     12298     12301     12298     12301     12303     12304
     12298     12301     12303     12305     12299     12298     12301     12302
     12299     12298     12301     12303     12300     12298     12301     12302
     12300     12298     12301     12303     12301     12303     12305     12306
     12301     12303     12305     12307     12301     12303     12305     12308
     12302     12301     12303     12304     12302     12301     12303     12305
     12303     12305     12308     12309     12303     12305     12308     12310
     12303     12305     12308     12311     12304     12303     12305     12306
     12304     12303     12305     12307     12304     12303     12305     12308
     12305     12308     12311     12312     12305     12308     12311     12313
     12305     12308     12311     12314     12306     12305     12308     12309
     12306     12305     12308     12310     12306     12305     12308     12311
     12307     12305     12308     12309     12307     12305     12308     12310
     12307     12305     12308     12311     12308     12311     12314     12315
     12308     12311     12314     12316     12308     12311     12314     12317
     12309     12308     12311     12312     12309     12308     12311     12313
     12309     12308     12311     12314     12310     12308     12311     12312
     12310     12308     12311     12313     12310     12308     12311     12314
     12311     12314     12317     12318     12311     12314     12317     12319
     12311     12314     12317     12320     12312     12311     12314     12315
     12312     12311     12314     12316     12312     12311     12314     12317
     12313     12311     12314     12315     12313     12311     12314     12316
     12313     12311     12314     12317     12314     12317     12320     12321
     12314     12317     12320     12322     12314     12317     12320     12323
     12315     12314     12317     12318     12315     12314     12317     12319
     12315     12314     12317     12320     12316     12314     12317     12318
     12316     12314     12317     12319     12316     12314     12317     12320
     12317     12320     12323     12324     12317     12320     12323     12325
     12317     12320     12323     12326     12318     12317     12320     12321
     12318     12317     12320     12322     12318     12317     12320     12323
     12319     12317     12320     12321     12319     12317     12320     12322
     12319     12317     12320     12323     12320     12323     12326     12327
     12320     12323     12326     12328     12320     12323     12326     12329
     12321     12320     12323     12324     12321     12320     12323     12325
     12321     12320     12323     12326     12322     12320     12323     12324
     12322     12320     12323     12325     12322     12320     12323     12326
     12324     12323     12326     12327     12324     12323     12326     12328
     12324     12323     12326     12329     12325     12323     12326     12327
     12325     12323     12326     12328     12325     12323     12326     12329
     12330     12333     12336     12337     12330     12333     12336     12338
     12330     12333     12336     12339     12331     12330     12333     12334
     12331     12330     12333     12335     12331     12330     12333     12336
     12332     12330     12333     12334     12332     12330     12333     12335
     12332     12330     12333     12336     12333     12336     12339     12340
     12333     12336     12339     12341     12333     12336     12339     12342
     12334     12333     12336     12337     12334     12333     12336     12338
     12334     12333     12336     12339     12335     12333     12336     12337
     12335     12333     12336     12338     12335     12333     12336     12339
     12336     12339     12342     12343     12336     12339     12342     12344
     12336     12339     12342     12345     12337     12336     12339     12340
     12337     12336     12339     12341     12337     12336     12339     12342
     12338     12336     12339     12340     12338     12336     12339     12341
     12338     12336     12339     12342     12339     12342     12345     12346
     12339     12342     12345     12347     12339     12342     12345     12348
     12340     12339     12342     12343     12340     12339     12342     12344
     12340     12339     12342     12345     12341     12339     12342     12343
     12341     12339     12342     12344     12341     12339     12342     12345
     12342     12345     12348     12349     12342     12345     12348     12350
     12343     12342     12345     12346     12343     12342     12345     12347
     12343     12342     12345     12348     12344     12342     12345     12346
     12344     12342     12345     12347     12344     12342     12345     12348
     12345     12348     12350     12351     12345     12348     12350     12352
     12346     12345     12348     12349     12346     12345     12348     12350
     12347     12345     12348     12349     12347     12345     12348     12350
     12348     12350     12352     12353     12348     12350     12352     12354
     12348     12350     12352     12355     12349     12348     12350     12351
     12349     12348     12350     12352     12350     12352     12355     12356
     12350     12352     12355     12357     12350     12352     12355     12358
     12351     12350     12352     12353     12351     12350     12352     12354
     12351     12350     12352     12355     12352     12355     12358     12359
     12352     12355     12358     12360     12352     12355     12358     12361
     12353     12352     12355     12356     12353     12352     12355     12357
     12353     12352     12355     12358     12354     12352     12355     12356
     12354     12352     12355     12357     12354     12352     12355     12358
     12355     12358     12361     12362     12355     12358     12361     12363
     12355     12358     12361     12364     12356     12355     12358     12359
     12356     12355     12358     12360     12356     12355     12358     12361
     12357     12355     12358     12359     12357     12355     12358     12360
     12357     12355     12358     12361     12358     12361     12364     12365
     12358     12361     12364     12366     12358     12361     12364     12367
     12359     12358     12361     12362     12359     12358     12361     12363
     12359     12358     12361     12364     12360     12358     12361     12362
     12360     12358     12361     12363     12360     12358     12361     12364
     12361     12364     12367     12368     12361     12364     12367     12369
     12361     12364     12367     12370     12362     12361     12364     12365
     12362     12361     12364     12366     12362     12361     12364     12367
     12363     12361     12364     12365     12363     12361     12364     12366
     12363     12361     12364     12367     12364     12367     12370     12371
     12364     12367     12370     12372     12364     12367     12370     12373
     12365     12364     12367     12368     12365     12364     12367     12369
     12365     12364     12367     12370     12366     12364     12367     12368
     12366     12364     12367     12369     12366     12364     12367     12370
     12367     12370     12373     12374     12367     12370     12373     12375
     12367     12370     12373     12376     12368     12367     12370     12371
     12368     12367     12370     12372     12368     12367     12370     12373
     12369     12367     12370     12371     12369     12367     12370     12372
     12369     12367     12370     12373     12371     12370     12373     12374
     12371     12370     12373     12375     12371     12370     12373     12376
     12372     12370     12373     12374     12372     12370     12373     12375
     12372     12370     12373     12376     12377     12381     12384     12385
     12377     12381     12384     12415     12377     12423     12420     12415
     12377     12423     12420     12421     12377     12423     12420     12422
     12378     12377     12379     12380     12378     12377     12381     12382
     12378     12377     12381     12383     12378     12377     12381     12384
     12378     12377     12423     12420     12378     12377     12423     12424
     12378     12377     12423     12425     12379     12377     12381     12382
     12379     12377     12381     12383     12379     12377     12381     12384
     12379     12377     12423     12420     12379     12377     12423     12424
     12379     12377     12423     12425     12380     12379     12377     12381
     12380     12379     12377     12423     12381     12377     12423     12420
     12381     12377     12423     12424     12381     12377     12423     12425
     12381     12384     12385     12386     12381     12384     12385     12387
     12381     12384     12415     12413     12381     12384     12415     12416
     12381     12384     12415     12420     12382     12381     12377     12423
     12382     12381     12384     12385     12382     12381     12384     12415
     12383     12381     12377     12423     12383     12381     12384     12385
     12383     12381     12384     12415     12384     12381     12377     12423
     12384     12385     12387     12388     12384     12385     12387     12389
     12384     12385     12387     12390     12384     12415     12413     12390
     12384     12415     12413     12410     12384     12415     12413     12414
     12384     12415     12416     12417     12384     12415     12416     12418
     12384     12415     12416     12419     12384     12415     12420     12421
     12384     12415     12420     12422     12384     12415     12420     12423
     12385     12384     12415     12413     12385     12384     12415     12416
     12385     12384     12415     12420     12385     12387     12390     12391
     12385     12387     12390     12392     12385     12387     12390     12413
     12386     12385     12384     12415     12386     12385     12387     12388
     12386     12385     12387     12389     12386     12385     12387     12390
     12387     12385     12384     12415     12387     12390     12392     12393
     12387     12390     12392     12394     12387     12390     12392     12402
     12387     12390     12413     12410     12387     12390     12413     12414
     12387     12390     12413     12415     12388     12387     12390     12391
     12388     12387     12390     12392     12388     12387     12390     12413
     12389     12387     12390     12391     12389     12387     12390     12392
     12389     12387     12390     12413     12390     12392     12394     12395
     12390     12392     12394     12396     12390     12392     12394     12397
     12390     12392     12402     12400     12390     12392     12402     12403
     12390     12392     12402     12407     12390     12413     12410     12407
     12390     12413     12410     12411     12390     12413     12410     12412
     12390     12413     12415     12416     12390     12413     12415     12420
     12391     12390     12392     12393     12391     12390     12392     12394
     12391     12390     12392     12402     12391     12390     12413     12410
     12391     12390     12413     12414     12391     12390     12413     12415
     12392     12390     12413     12410     12392     12390     12413     12414
     12392     12390     12413     12415     12392     12394     12397     12398
     12392     12394     12397     12399     12392     12394     12397     12400
     12392     12402     12400     12397     12392     12402     12400     12401
     12392     12402     12400     12426     12392     12402     12403     12404
     12392     12402     12403     12405     12392     12402     12403     12406
     12392     12402     12407     12408     12392     12402     12407     12409
     12392     12402     12407     12410     12393     12392     12390     12413
     12393     12392     12394     12395     12393     12392     12394     12396
     12393     12392     12394     12397     12393     12392     12402     12400
     12393     12392     12402     12403     12393     12392     12402     12407
     12394     12392     12390     12413     12394     12392     12402     12400
     12394     12392     12402     12403     12394     12392     12402     12407
     12394     12397     12400     12401     12394     12397     12400     12402
     12394     12397     12400     12426     12395     12394     12392     12402
     12395     12394     12397     12398     12395     12394     12397     12399
     12395     12394     12397     12400     12396     12394     12392     12402
     12396     12394     12397     12398     12396     12394     12397     12399
     12396     12394     12397     12400     12397     12394     12392     12402
     12397     12400     12402     12403     12397     12400     12402     12407
     12397     12400     12426     12427     12397     12400     12426     12428
     12397     12400     12426     12432     12398     12397     12400     12401
     12398     12397     12400     12402     12398     12397     12400     12426
     12399     12397     12400     12401     12399     12397     12400     12402
     12399     12397     12400     12426     12400     12402     12403     12404
     12400     12402     12403     12405     12400     12402     12403     12406
     12400     12402     12407     12408     12400     12402     12407     12409
     12400     12402     12407     12410     12400     12426     12428     12429
     12400     12426     12428     12430     12400     12426     12428     12431
     12400     12426     12432     12433     12400     12426     12432     12434
     12400     12426     12432     12435     12401     12400     12402     12403
     12401     12400     12402     12407     12401     12400     12426     12427
     12401     12400     12426     12428     12401     12400     12426     12432
     12402     12392     12390     12413     12402     12400     12426     12427
     12402     12400     12426     12428     12402     12400     12426     12432
     12402     12407     12410     12411     12402     12407     12410     12412
     12402     12407     12410     12413     12403     12402     12400     12426
     12403     12402     12407     12408     12403     12402     12407     12409
     12403     12402     12407     12410     12404     12403     12402     12407
     12405     12403     12402     12407     12406     12403     12402     12407
     12407     12402     12400     12426     12407     12410     12413     12414
     12407     12410     12413     12415     12408     12407     12410     12411
     12408     12407     12410     12412     12408     12407     12410     12413
     12409     12407     12410     12411     12409     12407     12410     12412
     12409     12407     12410     12413     12410     12413     12415     12416
     12410     12413     12415     12420     12411     12410     12413     12414
     12411     12410     12413     12415     12412     12410     12413     12414
     12412     12410     12413     12415     12413     12415     12416     12417
     12413     12415     12416     12418     12413     12415     12416     12419
     12413     12415     12420     12421     12413     12415     12420     12422
     12413     12415     12420     12423     12414     12413     12415     12416
     12414     12413     12415     12420     12415     12420     12423     12424
     12415     12420     12423     12425     12416     12415     12420     12421
     12416     12415     12420     12422     12416     12415     12420     12423
     12417     12416     12415     12420     12418     12416     12415     12420
     12419     12416     12415     12420     12421     12420     12423     12424
     12421     12420     12423     12425     12422     12420     12423     12424
     12422     12420     12423     12425     12426     12432     12435     12436
     12426     12432     12435     12437     12426     12432     12435     12438
     12427     12426     12428     12429     12427     12426     12428     12430
     12427     12426     12428     12431     12427     12426     12432     12433
     12427     12426     12432     12434     12427     12426     12432     12435
     12428     12426     12432     12433     12428     12426     12432     12434
     12428     12426     12432     12435     12429     12428     12426     12432
     12430     12428     12426     12432     12431     12428     12426     12432
     12432     12435     12438     12439     12432     12435     12438     12440
     12432     12435     12438     12441     12433     12432     12435     12436
     12433     12432     12435     12437     12433     12432     12435     12438
     12434     12432     12435     12436     12434     12432     12435     12437
     12434     12432     12435     12438     12435     12438     12441     12442
     12435     12438     12441     12443     12435     12438     12441     12447
     12436     12435     12438     12439     12436     12435     12438     12440
     12436     12435     12438     12441     12437     12435     12438     12439
     12437     12435     12438     12440     12437     12435     12438     12441
     12438     12441     12443     12444     12438     12441     12443     12445
     12438     12441     12443     12446     12438     12441     12447     12448
     12438     12441     12447     12449     12438     12441     12447     12450
     12439     12438     12441     12442     12439     12438     12441     12443
     12439     12438     12441     12447     12440     12438     12441     12442
     12440     12438     12441     12443     12440     12438     12441     12447
     12442     12441     12443     12444     12442     12441     12443     12445
     12442     12441     12443     12446     12442     12441     12447     12448
     12442     12441     12447     12449     12442     12441     12447     12450
     12443     12441     12447     12448     12443     12441     12447     12449
     12443     12441     12447     12450     12444     12443     12441     12447
     12445     12443     12441     12447     12446     12443     12441     12447
     12451     12464     12467     12468     12451     12464     12467     12469
     12451     12464     12467     12474     12452     12451     12456     12457
     12452     12451     12456     12458     12452     12451     12456     12459
     12452     12451     12460     12461     12452     12451     12460     12462
     12452     12451     12460     12463     12452     12451     12464     12465
     12452     12451     12464     12466     12452     12451     12464     12467
     12453     12452     12451     12456     12453     12452     12451     12460
     12453     12452     12451     12464     12454     12452     12451     12456
     12454     12452     12451     12460     12454     12452     12451     12464
     12455     12452     12451     12456     12455     12452     12451     12460
     12455     12452     12451     12464     12456     12451     12460     12461
     12456     12451     12460     12462     12456     12451     12460     12463
     12456     12451     12464     12465     12456     12451     12464     12466
     12456     12451     12464     12467     12457     12456     12451     12460
     12457     12456     12451     12464     12458     12456     12451     12460
     12458     12456     12451     12464     12459     12456     12451     12460
     12459     12456     12451     12464     12460     12451     12464     12465
     12460     12451     12464     12466     12460     12451     12464     12467
     12461     12460     12451     12464     12462     12460     12451     12464
     12463     12460     12451     12464     12464     12467     12474     12470
     12465     12464     12467     12468     12465     12464     12467     12469
     12465     12464     12467     12474     12466     12464     12467     12468
     12466     12464     12467     12469     12466     12464     12467     12474
     12467     12474     12470     12471     12467     12474     12470     12472
     12467     12474     12470     12473     12468     12467     12474     12470
     12469     12467     12474     12470     12470     12473     12475     12476
     12470     12473     12475     12477     12470     12473     12475     12480
     12471     12470     12473     12475     12472     12470     12473     12475
     12473     12475     12480     12478     12473     12475     12480     12481
     12473     12475     12480     12482     12474     12470     12473     12475
     12475     12480     12478     12479     12475     12480     12478     12530
     12475     12480     12482     12483     12475     12480     12482     12484
     12475     12480     12482     12486     12476     12475     12480     12478
     12476     12475     12480     12481     12476     12475     12480     12482
     12477     12475     12480     12478     12477     12475     12480     12481
     12477     12475     12480     12482     12478     12480     12482     12483
     12478     12480     12482     12484     12478     12480     12482     12486
     12478     12530     12532     12533     12478     12530     12532     12534
     12478     12530     12532     12535     12479     12478     12480     12481
     12479     12478     12480     12482     12479     12478     12530     12531
     12479     12478     12530     12532     12480     12478     12530     12531
     12480     12478     12530     12532     12480     12482     12484     12485
     12480     12482     12486     12487     12480     12482     12486     12488
     12481     12480     12478     12530     12481     12480     12482     12483
     12481     12480     12482     12484     12481     12480     12482     12486
     12482     12480     12478     12530     12482     12486     12488     12489
     12482     12486     12488     12490     12483     12482     12484     12485
     12483     12482     12486     12487     12483     12482     12486     12488
     12484     12482     12486     12487     12484     12482     12486     12488
     12485     12484     12482     12486     12486     12488     12490     12491
     12486     12488     12490     12492     12486     12488     12490     12493
     12487     12486     12488     12489     12487     12486     12488     12490
     12488     12490     12493     12494     12488     12490     12493     12495
     12488     12490     12493     12496     12489     12488     12490     12491
     12489     12488     12490     12492     12489     12488     12490     12493
     12490     12493     12496     12497     12490     12493     12496     12498
     12490     12493     12496     12499     12491     12490     12493     12494
     12491     12490     12493     12495     12491     12490     12493     12496
     12492     12490     12493     12494     12492     12490     12493     12495
     12492     12490     12493     12496     12493     12496     12499     12500
     12493     12496     12499     12501     12493     12496     12499     12502
     12494     12493     12496     12497     12494     12493     12496     12498
     12494     12493     12496     12499     12495     12493     12496     12497
     12495     12493     12496     12498     12495     12493     12496     12499
     12496     12499     12502     12503     12496     12499     12502     12504
     12496     12499     12502     12505     12497     12496     12499     12500
     12497     12496     12499     12501     12497     12496     12499     12502
     12498     12496     12499     12500     12498     12496     12499     12501
     12498     12496     12499     12502     12499     12502     12505     12506
     12499     12502     12505     12507     12499     12502     12505     12508
     12500     12499     12502     12503     12500     12499     12502     12504
     12500     12499     12502     12505     12501     12499     12502     12503
     12501     12499     12502     12504     12501     12499     12502     12505
     12502     12505     12508     12509     12502     12505     12508     12510
     12502     12505     12508     12511     12503     12502     12505     12506
     12503     12502     12505     12507     12503     12502     12505     12508
     12504     12502     12505     12506     12504     12502     12505     12507
     12504     12502     12505     12508     12505     12508     12511     12512
     12505     12508     12511     12513     12505     12508     12511     12514
     12506     12505     12508     12509     12506     12505     12508     12510
     12506     12505     12508     12511     12507     12505     12508     12509
     12507     12505     12508     12510     12507     12505     12508     12511
     12508     12511     12514     12515     12508     12511     12514     12516
     12508     12511     12514     12517     12509     12508     12511     12512
     12509     12508     12511     12513     12509     12508     12511     12514
     12510     12508     12511     12512     12510     12508     12511     12513
     12510     12508     12511     12514     12511     12514     12517     12518
     12511     12514     12517     12519     12511     12514     12517     12520
     12512     12511     12514     12515     12512     12511     12514     12516
     12512     12511     12514     12517     12513     12511     12514     12515
     12513     12511     12514     12516     12513     12511     12514     12517
     12514     12517     12520     12521     12514     12517     12520     12522
     12514     12517     12520     12523     12515     12514     12517     12518
     12515     12514     12517     12519     12515     12514     12517     12520
     12516     12514     12517     12518     12516     12514     12517     12519
     12516     12514     12517     12520     12517     12520     12523     12524
     12517     12520     12523     12525     12517     12520     12523     12526
     12518     12517     12520     12521     12518     12517     12520     12522
     12518     12517     12520     12523     12519     12517     12520     12521
     12519     12517     12520     12522     12519     12517     12520     12523
     12520     12523     12526     12527     12520     12523     12526     12528
     12520     12523     12526     12529     12521     12520     12523     12524
     12521     12520     12523     12525     12521     12520     12523     12526
     12522     12520     12523     12524     12522     12520     12523     12525
     12522     12520     12523     12526     12524     12523     12526     12527
     12524     12523     12526     12528     12524     12523     12526     12529
     12525     12523     12526     12527     12525     12523     12526     12528
     12525     12523     12526     12529     12530     12532     12535     12536
     12530     12532     12535     12537     12530     12532     12535     12538
     12531     12530     12532     12533     12531     12530     12532     12534
     12531     12530     12532     12535     12532     12535     12538     12539
     12532     12535     12538     12540     12532     12535     12538     12541
     12533     12532     12535     12536     12533     12532     12535     12537
     12533     12532     12535     12538     12534     12532     12535     12536
     12534     12532     12535     12537     12534     12532     12535     12538
     12535     12538     12541     12542     12535     12538     12541     12543
     12535     12538     12541     12544     12536     12535     12538     12539
     12536     12535     12538     12540     12536     12535     12538     12541
     12537     12535     12538     12539     12537     12535     12538     12540
     12537     12535     12538     12541     12538     12541     12544     12545
     12538     12541     12544     12546     12538     12541     12544     12547
     12539     12538     12541     12542     12539     12538     12541     12543
     12539     12538     12541     12544     12540     12538     12541     12542
     12540     12538     12541     12543     12540     12538     12541     12544
     12541     12544     12547     12548     12541     12544     12547     12549
     12541     12544     12547     12550     12542     12541     12544     12545
     12542     12541     12544     12546     12542     12541     12544     12547
     12543     12541     12544     12545     12543     12541     12544     12546
     12543     12541     12544     12547     12544     12547     12550     12551
     12544     12547     12550     12552     12544     12547     12550     12553
     12545     12544     12547     12548     12545     12544     12547     12549
     12545     12544     12547     12550     12546     12544     12547     12548
     12546     12544     12547     12549     12546     12544     12547     12550
     12547     12550     12553     12554     12547     12550     12553     12555
     12547     12550     12553     12556     12548     12547     12550     12551
     12548     12547     12550     12552     12548     12547     12550     12553
     12549     12547     12550     12551     12549     12547     12550     12552
     12549     12547     12550     12553     12550     12553     12556     12557
     12550     12553     12556     12558     12550     12553     12556     12559
     12551     12550     12553     12554     12551     12550     12553     12555
     12551     12550     12553     12556     12552     12550     12553     12554
     12552     12550     12553     12555     12552     12550     12553     12556
     12553     12556     12559     12560     12553     12556     12559     12561
     12553     12556     12559     12562     12554     12553     12556     12557
     12554     12553     12556     12558     12554     12553     12556     12559
     12555     12553     12556     12557     12555     12553     12556     12558
     12555     12553     12556     12559     12556     12559     12562     12563
     12556     12559     12562     12564     12556     12559     12562     12565
     12557     12556     12559     12560     12557     12556     12559     12561
     12557     12556     12559     12562     12558     12556     12559     12560
     12558     12556     12559     12561     12558     12556     12559     12562
     12559     12562     12565     12566     12559     12562     12565     12567
     12559     12562     12565     12568     12560     12559     12562     12563
     12560     12559     12562     12564     12560     12559     12562     12565
     12561     12559     12562     12563     12561     12559     12562     12564
     12561     12559     12562     12565     12562     12565     12568     12569
     12562     12565     12568     12570     12562     12565     12568     12571
     12563     12562     12565     12566     12563     12562     12565     12567
     12563     12562     12565     12568     12564     12562     12565     12566
     12564     12562     12565     12567     12564     12562     12565     12568
     12565     12568     12571     12572     12565     12568     12571     12573
     12565     12568     12571     12574     12566     12565     12568     12569
     12566     12565     12568     12570     12566     12565     12568     12571
     12567     12565     12568     12569     12567     12565     12568     12570
     12567     12565     12568     12571     12568     12571     12574     12575
     12568     12571     12574     12576     12568     12571     12574     12577
     12569     12568     12571     12572     12569     12568     12571     12573
     12569     12568     12571     12574     12570     12568     12571     12572
     12570     12568     12571     12573     12570     12568     12571     12574
     12571     12574     12577     12578     12571     12574     12577     12579
     12571     12574     12577     12580     12572     12571     12574     12575
     12572     12571     12574     12576     12572     12571     12574     12577
     12573     12571     12574     12575     12573     12571     12574     12576
     12573     12571     12574     12577     12574     12577     12580     12581
     12574     12577     12580     12582     12574     12577     12580     12583
     12575     12574     12577     12578     12575     12574     12577     12579
     12575     12574     12577     12580     12576     12574     12577     12578
     12576     12574     12577     12579     12576     12574     12577     12580
     12577     12580     12583     12584     12577     12580     12583     12585
     12577     12580     12583     12586     12578     12577     12580     12581
     12578     12577     12580     12582     12578     12577     12580     12583
     12579     12577     12580     12581     12579     12577     12580     12582
     12579     12577     12580     12583     12580     12583     12586     12587
     12580     12583     12586     12588     12580     12583     12586     12589
     12581     12580     12583     12584     12581     12580     12583     12585
     12581     12580     12583     12586     12582     12580     12583     12584
     12582     12580     12583     12585     12582     12580     12583     12586
     12583     12586     12589     12590     12583     12586     12589     12591
     12583     12586     12589     12592     12584     12583     12586     12587
     12584     12583     12586     12588     12584     12583     12586     12589
     12585     12583     12586     12587     12585     12583     12586     12588
     12585     12583     12586     12589     12586     12589     12592     12593
     12586     12589     12592     12594     12586     12589     12592     12595
     12587     12586     12589     12590     12587     12586     12589     12591
     12587     12586     12589     12592     12588     12586     12589     12590
     12588     12586     12589     12591     12588     12586     12589     12592
     12589     12592     12595     12596     12589     12592     12595     12597
     12589     12592     12595     12598     12590     12589     12592     12593
     12590     12589     12592     12594     12590     12589     12592     12595
     12591     12589     12592     12593     12591     12589     12592     12594
     12591     12589     12592     12595     12593     12592     12595     12596
     12593     12592     12595     12597     12593     12592     12595     12598
     12594     12592     12595     12596     12594     12592     12595     12597
     12594     12592     12595     12598     12599     12603     12606     12607
     12599     12603     12606     12637     12599     12645     12642     12637
     12599     12645     12642     12643     12599     12645     12642     12644
     12600     12599     12601     12602     12600     12599     12603     12604
     12600     12599     12603     12605     12600     12599     12603     12606
     12600     12599     12645     12642     12600     12599     12645     12646
     12600     12599     12645     12647     12601     12599     12603     12604
     12601     12599     12603     12605     12601     12599     12603     12606
     12601     12599     12645     12642     12601     12599     12645     12646
     12601     12599     12645     12647     12602     12601     12599     12603
     12602     12601     12599     12645     12603     12599     12645     12642
     12603     12599     12645     12646     12603     12599     12645     12647
     12603     12606     12607     12608     12603     12606     12607     12609
     12603     12606     12637     12635     12603     12606     12637     12638
     12603     12606     12637     12642     12604     12603     12599     12645
     12604     12603     12606     12607     12604     12603     12606     12637
     12605     12603     12599     12645     12605     12603     12606     12607
     12605     12603     12606     12637     12606     12603     12599     12645
     12606     12607     12609     12610     12606     12607     12609     12611
     12606     12607     12609     12612     12606     12637     12635     12612
     12606     12637     12635     12632     12606     12637     12635     12636
     12606     12637     12638     12639     12606     12637     12638     12640
     12606     12637     12638     12641     12606     12637     12642     12643
     12606     12637     12642     12644     12606     12637     12642     12645
     12607     12606     12637     12635     12607     12606     12637     12638
     12607     12606     12637     12642     12607     12609     12612     12613
     12607     12609     12612     12614     12607     12609     12612     12635
     12608     12607     12606     12637     12608     12607     12609     12610
     12608     12607     12609     12611     12608     12607     12609     12612
     12609     12607     12606     12637     12609     12612     12614     12615
     12609     12612     12614     12616     12609     12612     12614     12624
     12609     12612     12635     12632     12609     12612     12635     12636
     12609     12612     12635     12637     12610     12609     12612     12613
     12610     12609     12612     12614     12610     12609     12612     12635
     12611     12609     12612     12613     12611     12609     12612     12614
     12611     12609     12612     12635     12612     12614     12616     12617
     12612     12614     12616     12618     12612     12614     12616     12619
     12612     12614     12624     12622     12612     12614     12624     12625
     12612     12614     12624     12629     12612     12635     12632     12629
     12612     12635     12632     12633     12612     12635     12632     12634
     12612     12635     12637     12638     12612     12635     12637     12642
     12613     12612     12614     12615     12613     12612     12614     12616
     12613     12612     12614     12624     12613     12612     12635     12632
     12613     12612     12635     12636     12613     12612     12635     12637
     12614     12612     12635     12632     12614     12612     12635     12636
     12614     12612     12635     12637     12614     12616     12619     12620
     12614     12616     12619     12621     12614     12616     12619     12622
     12614     12624     12622     12619     12614     12624     12622     12623
     12614     12624     12622     12648     12614     12624     12625     12626
     12614     12624     12625     12627     12614     12624     12625     12628
     12614     12624     12629     12630     12614     12624     12629     12631
     12614     12624     12629     12632     12615     12614     12612     12635
     12615     12614     12616     12617     12615     12614     12616     12618
     12615     12614     12616     12619     12615     12614     12624     12622
     12615     12614     12624     12625     12615     12614     12624     12629
     12616     12614     12612     12635     12616     12614     12624     12622
     12616     12614     12624     12625     12616     12614     12624     12629
     12616     12619     12622     12623     12616     12619     12622     12624
     12616     12619     12622     12648     12617     12616     12614     12624
     12617     12616     12619     12620     12617     12616     12619     12621
     12617     12616     12619     12622     12618     12616     12614     12624
     12618     12616     12619     12620     12618     12616     12619     12621
     12618     12616     12619     12622     12619     12616     12614     12624
     12619     12622     12624     12625     12619     12622     12624     12629
     12619     12622     12648     12649     12619     12622     12648     12650
     12619     12622     12648     12654     12620     12619     12622     12623
     12620     12619     12622     12624     12620     12619     12622     12648
     12621     12619     12622     12623     12621     12619     12622     12624
     12621     12619     12622     12648     12622     12624     12625     12626
     12622     12624     12625     12627     12622     12624     12625     12628
     12622     12624     12629     12630     12622     12624     12629     12631
     12622     12624     12629     12632     12622     12648     12650     12651
     12622     12648     12650     12652     12622     12648     12650     12653
     12622     12648     12654     12655     12622     12648     12654     12656
     12622     12648     12654     12657     12623     12622     12624     12625
     12623     12622     12624     12629     12623     12622     12648     12649
     12623     12622     12648     12650     12623     12622     12648     12654
     12624     12614     12612     12635     12624     12622     12648     12649
     12624     12622     12648     12650     12624     12622     12648     12654
     12624     12629     12632     12633     12624     12629     12632     12634
     12624     12629     12632     12635     12625     12624     12622     12648
     12625     12624     12629     12630     12625     12624     12629     12631
     12625     12624     12629     12632     12626     12625     12624     12629
     12627     12625     12624     12629     12628     12625     12624     12629
     12629     12624     12622     12648     12629     12632     12635     12636
     12629     12632     12635     12637     12630     12629     12632     12633
     12630     12629     12632     12634     12630     12629     12632     12635
     12631     12629     12632     12633     12631     12629     12632     12634
     12631     12629     12632     12635     12632     12635     12637     12638
     12632     12635     12637     12642     12633     12632     12635     12636
     12633     12632     12635     12637     12634     12632     12635     12636
     12634     12632     12635     12637     12635     12637     12638     12639
     12635     12637     12638     12640     12635     12637     12638     12641
     12635     12637     12642     12643     12635     12637     12642     12644
     12635     12637     12642     12645     12636     12635     12637     12638
     12636     12635     12637     12642     12637     12642     12645     12646
     12637     12642     12645     12647     12638     12637     12642     12643
     12638     12637     12642     12644     12638     12637     12642     12645
     12639     12638     12637     12642     12640     12638     12637     12642
     12641     12638     12637     12642     12643     12642     12645     12646
     12643     12642     12645     12647     12644     12642     12645     12646
     12644     12642     12645     12647     12648     12654     12657     12658
     12648     12654     12657     12659     12648     12654     12657     12660
     12649     12648     12650     12651     12649     12648     12650     12652
     12649     12648     12650     12653     12649     12648     12654     12655
     12649     12648     12654     12656     12649     12648     12654     12657
     12650     12648     12654     12655     12650     12648     12654     12656
     12650     12648     12654     12657     12651     12650     12648     12654
     12652     12650     12648     12654     12653     12650     12648     12654
     12654     12657     12660     12661     12654     12657     12660     12662
     12654     12657     12660     12663     12655     12654     12657     12658
     12655     12654     12657     12659     12655     12654     12657     12660
     12656     12654     12657     12658     12656     12654     12657     12659
     12656     12654     12657     12660     12657     12660     12663     12664
     12657     12660     12663     12665     12657     12660     12663     12669
     12658     12657     12660     12661     12658     12657     12660     12662
     12658     12657     12660     12663     12659     12657     12660     12661
     12659     12657     12660     12662     12659     12657     12660     12663
     12660     12663     12665     12666     12660     12663     12665     12667
     12660     12663     12665     12668     12660     12663     12669     12670
     12660     12663     12669     12671     12660     12663     12669     12672
     12661     12660     12663     12664     12661     12660     12663     12665
     12661     12660     12663     12669     12662     12660     12663     12664
     12662     12660     12663     12665     12662     12660     12663     12669
     12664     12663     12665     12666     12664     12663     12665     12667
     12664     12663     12665     12668     12664     12663     12669     12670
     12664     12663     12669     12671     12664     12663     12669     12672
     12665     12663     12669     12670     12665     12663     12669     12671
     12665     12663     12669     12672     12666     12665     12663     12669
     12667     12665     12663     12669     12668     12665     12663     12669
     12673     12686     12689     12690     12673     12686     12689     12691
     12673     12686     12689     12696     12674     12673     12678     12679
     12674     12673     12678     12680     12674     12673     12678     12681
     12674     12673     12682     12683     12674     12673     12682     12684
     12674     12673     12682     12685     12674     12673     12686     12687
     12674     12673     12686     12688     12674     12673     12686     12689
     12675     12674     12673     12678     12675     12674     12673     12682
     12675     12674     12673     12686     12676     12674     12673     12678
     12676     12674     12673     12682     12676     12674     12673     12686
     12677     12674     12673     12678     12677     12674     12673     12682
     12677     12674     12673     12686     12678     12673     12682     12683
     12678     12673     12682     12684     12678     12673     12682     12685
     12678     12673     12686     12687     12678     12673     12686     12688
     12678     12673     12686     12689     12679     12678     12673     12682
     12679     12678     12673     12686     12680     12678     12673     12682
     12680     12678     12673     12686     12681     12678     12673     12682
     12681     12678     12673     12686     12682     12673     12686     12687
     12682     12673     12686     12688     12682     12673     12686     12689
     12683     12682     12673     12686     12684     12682     12673     12686
     12685     12682     12673     12686     12686     12689     12696     12692
     12687     12686     12689     12690     12687     12686     12689     12691
     12687     12686     12689     12696     12688     12686     12689     12690
     12688     12686     12689     12691     12688     12686     12689     12696
     12689     12696     12692     12693     12689     12696     12692     12694
     12689     12696     12692     12695     12690     12689     12696     12692
     12691     12689     12696     12692     12692     12695     12697     12698
     12692     12695     12697     12699     12692     12695     12697     12702
     12693     12692     12695     12697     12694     12692     12695     12697
     12695     12697     12702     12700     12695     12697     12702     12703
     12695     12697     12702     12704     12696     12692     12695     12697
     12697     12702     12700     12701     12697     12702     12700     12752
     12697     12702     12704     12705     12697     12702     12704     12706
     12697     12702     12704     12708     12698     12697     12702     12700
     12698     12697     12702     12703     12698     12697     12702     12704
     12699     12697     12702     12700     12699     12697     12702     12703
     12699     12697     12702     12704     12700     12702     12704     12705
     12700     12702     12704     12706     12700     12702     12704     12708
     12700     12752     12754     12755     12700     12752     12754     12756
     12700     12752     12754     12757     12701     12700     12702     12703
     12701     12700     12702     12704     12701     12700     12752     12753
     12701     12700     12752     12754     12702     12700     12752     12753
     12702     12700     12752     12754     12702     12704     12706     12707
     12702     12704     12708     12709     12702     12704     12708     12710
     12703     12702     12700     12752     12703     12702     12704     12705
     12703     12702     12704     12706     12703     12702     12704     12708
     12704     12702     12700     12752     12704     12708     12710     12711
     12704     12708     12710     12712     12705     12704     12706     12707
     12705     12704     12708     12709     12705     12704     12708     12710
     12706     12704     12708     12709     12706     12704     12708     12710
     12707     12706     12704     12708     12708     12710     12712     12713
     12708     12710     12712     12714     12708     12710     12712     12715
     12709     12708     12710     12711     12709     12708     12710     12712
     12710     12712     12715     12716     12710     12712     12715     12717
     12710     12712     12715     12718     12711     12710     12712     12713
     12711     12710     12712     12714     12711     12710     12712     12715
     12712     12715     12718     12719     12712     12715     12718     12720
     12712     12715     12718     12721     12713     12712     12715     12716
     12713     12712     12715     12717     12713     12712     12715     12718
     12714     12712     12715     12716     12714     12712     12715     12717
     12714     12712     12715     12718     12715     12718     12721     12722
     12715     12718     12721     12723     12715     12718     12721     12724
     12716     12715     12718     12719     12716     12715     12718     12720
     12716     12715     12718     12721     12717     12715     12718     12719
     12717     12715     12718     12720     12717     12715     12718     12721
     12718     12721     12724     12725     12718     12721     12724     12726
     12718     12721     12724     12727     12719     12718     12721     12722
     12719     12718     12721     12723     12719     12718     12721     12724
     12720     12718     12721     12722     12720     12718     12721     12723
     12720     12718     12721     12724     12721     12724     12727     12728
     12721     12724     12727     12729     12721     12724     12727     12730
     12722     12721     12724     12725     12722     12721     12724     12726
     12722     12721     12724     12727     12723     12721     12724     12725
     12723     12721     12724     12726     12723     12721     12724     12727
     12724     12727     12730     12731     12724     12727     12730     12732
     12724     12727     12730     12733     12725     12724     12727     12728
     12725     12724     12727     12729     12725     12724     12727     12730
     12726     12724     12727     12728     12726     12724     12727     12729
     12726     12724     12727     12730     12727     12730     12733     12734
     12727     12730     12733     12735     12727     12730     12733     12736
     12728     12727     12730     12731     12728     12727     12730     12732
     12728     12727     12730     12733     12729     12727     12730     12731
     12729     12727     12730     12732     12729     12727     12730     12733
     12730     12733     12736     12737     12730     12733     12736     12738
     12730     12733     12736     12739     12731     12730     12733     12734
     12731     12730     12733     12735     12731     12730     12733     12736
     12732     12730     12733     12734     12732     12730     12733     12735
     12732     12730     12733     12736     12733     12736     12739     12740
     12733     12736     12739     12741     12733     12736     12739     12742
     12734     12733     12736     12737     12734     12733     12736     12738
     12734     12733     12736     12739     12735     12733     12736     12737
     12735     12733     12736     12738     12735     12733     12736     12739
     12736     12739     12742     12743     12736     12739     12742     12744
     12736     12739     12742     12745     12737     12736     12739     12740
     12737     12736     12739     12741     12737     12736     12739     12742
     12738     12736     12739     12740     12738     12736     12739     12741
     12738     12736     12739     12742     12739     12742     12745     12746
     12739     12742     12745     12747     12739     12742     12745     12748
     12740     12739     12742     12743     12740     12739     12742     12744
     12740     12739     12742     12745     12741     12739     12742     12743
     12741     12739     12742     12744     12741     12739     12742     12745
     12742     12745     12748     12749     12742     12745     12748     12750
     12742     12745     12748     12751     12743     12742     12745     12746
     12743     12742     12745     12747     12743     12742     12745     12748
     12744     12742     12745     12746     12744     12742     12745     12747
     12744     12742     12745     12748     12746     12745     12748     12749
     12746     12745     12748     12750     12746     12745     12748     12751
     12747     12745     12748     12749     12747     12745     12748     12750
     12747     12745     12748     12751     12752     12754     12757     12758
     12752     12754     12757     12759     12752     12754     12757     12760
     12753     12752     12754     12755     12753     12752     12754     12756
     12753     12752     12754     12757     12754     12757     12760     12761
     12754     12757     12760     12762     12754     12757     12760     12763
     12755     12754     12757     12758     12755     12754     12757     12759
     12755     12754     12757     12760     12756     12754     12757     12758
     12756     12754     12757     12759     12756     12754     12757     12760
     12757     12760     12763     12764     12757     12760     12763     12765
     12757     12760     12763     12766     12758     12757     12760     12761
     12758     12757     12760     12762     12758     12757     12760     12763
     12759     12757     12760     12761     12759     12757     12760     12762
     12759     12757     12760     12763     12760     12763     12766     12767
     12760     12763     12766     12768     12760     12763     12766     12769
     12761     12760     12763     12764     12761     12760     12763     12765
     12761     12760     12763     12766     12762     12760     12763     12764
     12762     12760     12763     12765     12762     12760     12763     12766
     12763     12766     12769     12770     12763     12766     12769     12771
     12763     12766     12769     12772     12764     12763     12766     12767
     12764     12763     12766     12768     12764     12763     12766     12769
     12765     12763     12766     12767     12765     12763     12766     12768
     12765     12763     12766     12769     12766     12769     12772     12773
     12766     12769     12772     12774     12766     12769     12772     12775
     12767     12766     12769     12770     12767     12766     12769     12771
     12767     12766     12769     12772     12768     12766     12769     12770
     12768     12766     12769     12771     12768     12766     12769     12772
     12769     12772     12775     12776     12769     12772     12775     12777
     12769     12772     12775     12778     12770     12769     12772     12773
     12770     12769     12772     12774     12770     12769     12772     12775
     12771     12769     12772     12773     12771     12769     12772     12774
     12771     12769     12772     12775     12772     12775     12778     12779
     12772     12775     12778     12780     12772     12775     12778     12781
     12773     12772     12775     12776     12773     12772     12775     12777
     12773     12772     12775     12778     12774     12772     12775     12776
     12774     12772     12775     12777     12774     12772     12775     12778
     12775     12778     12781     12782     12775     12778     12781     12783
     12775     12778     12781     12784     12776     12775     12778     12779
     12776     12775     12778     12780     12776     12775     12778     12781
     12777     12775     12778     12779     12777     12775     12778     12780
     12777     12775     12778     12781     12778     12781     12784     12785
     12778     12781     12784     12786     12778     12781     12784     12787
     12779     12778     12781     12782     12779     12778     12781     12783
     12779     12778     12781     12784     12780     12778     12781     12782
     12780     12778     12781     12783     12780     12778     12781     12784
     12781     12784     12787     12788     12781     12784     12787     12789
     12781     12784     12787     12790     12782     12781     12784     12785
     12782     12781     12784     12786     12782     12781     12784     12787
     12783     12781     12784     12785     12783     12781     12784     12786
     12783     12781     12784     12787     12784     12787     12790     12791
     12784     12787     12790     12792     12784     12787     12790     12793
     12785     12784     12787     12788     12785     12784     12787     12789
     12785     12784     12787     12790     12786     12784     12787     12788
     12786     12784     12787     12789     12786     12784     12787     12790
     12787     12790     12793     12794     12787     12790     12793     12795
     12787     12790     12793     12796     12788     12787     12790     12791
     12788     12787     12790     12792     12788     12787     12790     12793
     12789     12787     12790     12791     12789     12787     12790     12792
     12789     12787     12790     12793     12790     12793     12796     12797
     12790     12793     12796     12798     12790     12793     12796     12799
     12791     12790     12793     12794     12791     12790     12793     12795
     12791     12790     12793     12796     12792     12790     12793     12794
     12792     12790     12793     12795     12792     12790     12793     12796
     12793     12796     12799     12800     12793     12796     12799     12801
     12793     12796     12799     12802     12794     12793     12796     12797
     12794     12793     12796     12798     12794     12793     12796     12799
     12795     12793     12796     12797     12795     12793     12796     12798
     12795     12793     12796     12799     12796     12799     12802     12803
     12796     12799     12802     12804     12796     12799     12802     12805
     12797     12796     12799     12800     12797     12796     12799     12801
     12797     12796     12799     12802     12798     12796     12799     12800
     12798     12796     12799     12801     12798     12796     12799     12802
     12799     12802     12805     12806     12799     12802     12805     12807
     12799     12802     12805     12808     12800     12799     12802     12803
     12800     12799     12802     12804     12800     12799     12802     12805
     12801     12799     12802     12803     12801     12799     12802     12804
     12801     12799     12802     12805     12802     12805     12808     12809
     12802     12805     12808     12810     12802     12805     12808     12811
     12803     12802     12805     12806     12803     12802     12805     12807
     12803     12802     12805     12808     12804     12802     12805     12806
     12804     12802     12805     12807     12804     12802     12805     12808
     12805     12808     12811     12812     12805     12808     12811     12813
     12805     12808     12811     12814     12806     12805     12808     12809
     12806     12805     12808     12810     12806     12805     12808     12811
     12807     12805     12808     12809     12807     12805     12808     12810
     12807     12805     12808     12811     12808     12811     12814     12815
     12808     12811     12814     12816     12808     12811     12814     12817
     12809     12808     12811     12812     12809     12808     12811     12813
     12809     12808     12811     12814     12810     12808     12811     12812
     12810     12808     12811     12813     12810     12808     12811     12814
     12811     12814     12817     12818     12811     12814     12817     12819
     12811     12814     12817     12820     12812     12811     12814     12815
     12812     12811     12814     12816     12812     12811     12814     12817
     12813     12811     12814     12815     12813     12811     12814     12816
     12813     12811     12814     12817     12815     12814     12817     12818
     12815     12814     12817     12819     12815     12814     12817     12820
     12816     12814     12817     12818     12816     12814     12817     12819
     12816     12814     12817     12820     12821     12822     12837     12838
     12821     12822     12837     12839     12821     12822     12837     12843
     12822     12821     12825     12826     12822     12821     12825     12827
     12822     12821     12825     12828     12822     12821     12829     12830
     12822     12821     12829     12831     12822     12821     12829     12832
     12822     12821     12833     12834     12822     12821     12833     12835
     12822     12821     12833     12836     12822     12837     12843     12840
     12823     12822     12821     12825     12823     12822     12821     12829
     12823     12822     12821     12833     12823     12822     12837     12838
     12823     12822     12837     12839     12823     12822     12837     12843
     12824     12822     12821     12825     12824     12822     12821     12829
     12824     12822     12821     12833     12824     12822     12837     12838
     12824     12822     12837     12839     12824     12822     12837     12843
     12825     12821     12822     12837     12825     12821     12829     12830
     12825     12821     12829     12831     12825     12821     12829     12832
     12825     12821     12833     12834     12825     12821     12833     12835
     12825     12821     12833     12836     12826     12825     12821     12829
     12826     12825     12821     12833     12827     12825     12821     12829
     12827     12825     12821     12833     12828     12825     12821     12829
     12828     12825     12821     12833     12829     12821     12822     12837
     12829     12821     12833     12834     12829     12821     12833     12835
     12829     12821     12833     12836     12830     12829     12821     12833
     12831     12829     12821     12833     12832     12829     12821     12833
     12833     12821     12822     12837     12837     12843     12840     12841
     12837     12843     12840     12842     12837     12843     12840     12844
     12838     12837     12843     12840     12839     12837     12843     12840
     12840     12844     12845     12846     12840     12844     12845     12847
     12840     12844     12845     12848     12841     12840     12844     12845
     12842     12840     12844     12845     12843     12840     12844     12845
     12844     12845     12848     12849     12844     12845     12848     12850
     12844     12845     12848     12856     12845     12848     12850     12851
     12845     12848     12856     12857     12845     12848     12856     12858
     12845     12848     12856     12859     12846     12845     12848     12849
     12846     12845     12848     12850     12846     12845     12848     12856
     12847     12845     12848     12849     12847     12845     12848     12850
     12847     12845     12848     12856     12848     12850     12851     12852
     12848     12850     12851     12853     12848     12856     12859     12860
     12849     12848     12850     12851     12849     12848     12856     12857
     12849     12848     12856     12858     12849     12848     12856     12859
     12850     12848     12856     12857     12850     12848     12856     12858
     12850     12848     12856     12859     12850     12851     12853     12854
     12850     12851     12853     12855     12850     12851     12853     12865
     12851     12850     12848     12856     12851     12853     12865     12866
     12851     12853     12865     12867     12851     12853     12865     12868
     12852     12851     12853     12854     12852     12851     12853     12855
     12852     12851     12853     12865     12853     12865     12868     12869
     12853     12865     12868     12870     12853     12865     12868     12871
     12854     12853     12865     12866     12854     12853     12865     12867
     12854     12853     12865     12868     12855     12853     12865     12866
     12855     12853     12865     12867     12855     12853     12865     12868
     12856     12859     12860     12861     12856     12859     12860     12862
     12857     12856     12859     12860     12858     12856     12859     12860
     12859     12860     12862     12863     12859     12860     12862     12864
     12859     12860     12862     12912     12860     12862     12912     12913
     12860     12862     12912     12914     12860     12862     12912     12915
     12861     12860     12862     12863     12861     12860     12862     12864
     12861     12860     12862     12912     12862     12912     12915     12916
     12862     12912     12915     12917     12862     12912     12915     12918
     12863     12862     12912     12913     12863     12862     12912     12914
     12863     12862     12912     12915     12864     12862     12912     12913
     12864     12862     12912     12914     12864     12862     12912     12915
     12865     12868     12871     12872     12865     12868     12871     12873
     12865     12868     12871     12874     12866     12865     12868     12869
     12866     12865     12868     12870     12866     12865     12868     12871
     12867     12865     12868     12869     12867     12865     12868     12870
     12867     12865     12868     12871     12868     12871     12874     12875
     12868     12871     12874     12876     12868     12871     12874     12877
     12869     12868     12871     12872     12869     12868     12871     12873
     12869     12868     12871     12874     12870     12868     12871     12872
     12870     12868     12871     12873     12870     12868     12871     12874
     12871     12874     12877     12878     12871     12874     12877     12879
     12871     12874     12877     12880     12872     12871     12874     12875
     12872     12871     12874     12876     12872     12871     12874     12877
     12873     12871     12874     12875     12873     12871     12874     12876
     12873     12871     12874     12877     12874     12877     12880     12881
     12874     12877     12880     12882     12874     12877     12880     12883
     12875     12874     12877     12878     12875     12874     12877     12879
     12875     12874     12877     12880     12876     12874     12877     12878
     12876     12874     12877     12879     12876     12874     12877     12880
     12877     12880     12883     12884     12877     12880     12883     12885
     12878     12877     12880     12881     12878     12877     12880     12882
     12878     12877     12880     12883     12879     12877     12880     12881
     12879     12877     12880     12882     12879     12877     12880     12883
     12880     12883     12885     12886     12880     12883     12885     12887
     12881     12880     12883     12884     12881     12880     12883     12885
     12882     12880     12883     12884     12882     12880     12883     12885
     12883     12885     12887     12888     12883     12885     12887     12889
     12883     12885     12887     12890     12884     12883     12885     12886
     12884     12883     12885     12887     12885     12887     12890     12891
     12885     12887     12890     12892     12885     12887     12890     12893
     12886     12885     12887     12888     12886     12885     12887     12889
     12886     12885     12887     12890     12887     12890     12893     12894
     12887     12890     12893     12895     12887     12890     12893     12896
     12888     12887     12890     12891     12888     12887     12890     12892
     12888     12887     12890     12893     12889     12887     12890     12891
     12889     12887     12890     12892     12889     12887     12890     12893
     12890     12893     12896     12897     12890     12893     12896     12898
     12890     12893     12896     12899     12891     12890     12893     12894
     12891     12890     12893     12895     12891     12890     12893     12896
     12892     12890     12893     12894     12892     12890     12893     12895
     12892     12890     12893     12896     12893     12896     12899     12900
     12893     12896     12899     12901     12893     12896     12899     12902
     12894     12893     12896     12897     12894     12893     12896     12898
     12894     12893     12896     12899     12895     12893     12896     12897
     12895     12893     12896     12898     12895     12893     12896     12899
     12896     12899     12902     12903     12896     12899     12902     12904
     12896     12899     12902     12905     12897     12896     12899     12900
     12897     12896     12899     12901     12897     12896     12899     12902
     12898     12896     12899     12900     12898     12896     12899     12901
     12898     12896     12899     12902     12899     12902     12905     12906
     12899     12902     12905     12907     12899     12902     12905     12908
     12900     12899     12902     12903     12900     12899     12902     12904
     12900     12899     12902     12905     12901     12899     12902     12903
     12901     12899     12902     12904     12901     12899     12902     12905
     12902     12905     12908     12909     12902     12905     12908     12910
     12902     12905     12908     12911     12903     12902     12905     12906
     12903     12902     12905     12907     12903     12902     12905     12908
     12904     12902     12905     12906     12904     12902     12905     12907
     12904     12902     12905     12908     12906     12905     12908     12909
     12906     12905     12908     12910     12906     12905     12908     12911
     12907     12905     12908     12909     12907     12905     12908     12910
     12907     12905     12908     12911     12912     12915     12918     12919
     12912     12915     12918     12920     12912     12915     12918     12921
     12913     12912     12915     12916     12913     12912     12915     12917
     12913     12912     12915     12918     12914     12912     12915     12916
     12914     12912     12915     12917     12914     12912     12915     12918
     12915     12918     12921     12922     12915     12918     12921     12923
     12915     12918     12921     12924     12916     12915     12918     12919
     12916     12915     12918     12920     12916     12915     12918     12921
     12917     12915     12918     12919     12917     12915     12918     12920
     12917     12915     12918     12921     12918     12921     12924     12925
     12918     12921     12924     12926     12918     12921     12924     12927
     12919     12918     12921     12922     12919     12918     12921     12923
     12919     12918     12921     12924     12920     12918     12921     12922
     12920     12918     12921     12923     12920     12918     12921     12924
     12921     12924     12927     12928     12921     12924     12927     12929
     12921     12924     12927     12930     12922     12921     12924     12925
     12922     12921     12924     12926     12922     12921     12924     12927
     12923     12921     12924     12925     12923     12921     12924     12926
     12923     12921     12924     12927     12924     12927     12930     12931
     12924     12927     12930     12932     12925     12924     12927     12928
     12925     12924     12927     12929     12925     12924     12927     12930
     12926     12924     12927     12928     12926     12924     12927     12929
     12926     12924     12927     12930     12927     12930     12932     12933
     12927     12930     12932     12934     12928     12927     12930     12931
     12928     12927     12930     12932     12929     12927     12930     12931
     12929     12927     12930     12932     12930     12932     12934     12935
     12930     12932     12934     12936     12930     12932     12934     12937
     12931     12930     12932     12933     12931     12930     12932     12934
     12932     12934     12937     12938     12932     12934     12937     12939
     12932     12934     12937     12940     12933     12932     12934     12935
     12933     12932     12934     12936     12933     12932     12934     12937
     12934     12937     12940     12941     12934     12937     12940     12942
     12934     12937     12940     12943     12935     12934     12937     12938
     12935     12934     12937     12939     12935     12934     12937     12940
     12936     12934     12937     12938     12936     12934     12937     12939
     12936     12934     12937     12940     12937     12940     12943     12944
     12937     12940     12943     12945     12937     12940     12943     12946
     12938     12937     12940     12941     12938     12937     12940     12942
     12938     12937     12940     12943     12939     12937     12940     12941
     12939     12937     12940     12942     12939     12937     12940     12943
     12940     12943     12946     12947     12940     12943     12946     12948
     12940     12943     12946     12949     12941     12940     12943     12944
     12941     12940     12943     12945     12941     12940     12943     12946
     12942     12940     12943     12944     12942     12940     12943     12945
     12942     12940     12943     12946     12943     12946     12949     12950
     12943     12946     12949     12951     12943     12946     12949     12952
     12944     12943     12946     12947     12944     12943     12946     12948
     12944     12943     12946     12949     12945     12943     12946     12947
     12945     12943     12946     12948     12945     12943     12946     12949
     12946     12949     12952     12953     12946     12949     12952     12954
     12946     12949     12952     12955     12947     12946     12949     12950
     12947     12946     12949     12951     12947     12946     12949     12952
     12948     12946     12949     12950     12948     12946     12949     12951
     12948     12946     12949     12952     12949     12952     12955     12956
     12949     12952     12955     12957     12949     12952     12955     12958
     12950     12949     12952     12953     12950     12949     12952     12954
     12950     12949     12952     12955     12951     12949     12952     12953
     12951     12949     12952     12954     12951     12949     12952     12955
     12953     12952     12955     12956     12953     12952     12955     12957
     12953     12952     12955     12958     12954     12952     12955     12956
     12954     12952     12955     12957     12954     12952     12955     12958
     12959     12960     12975     12976     12959     12960     12975     12977
     12959     12960     12975     12981     12960     12959     12963     12964
     12960     12959     12963     12965     12960     12959     12963     12966
     12960     12959     12967     12968     12960     12959     12967     12969
     12960     12959     12967     12970     12960     12959     12971     12972
     12960     12959     12971     12973     12960     12959     12971     12974
     12960     12975     12981     12978     12961     12960     12959     12963
     12961     12960     12959     12967     12961     12960     12959     12971
     12961     12960     12975     12976     12961     12960     12975     12977
     12961     12960     12975     12981     12962     12960     12959     12963
     12962     12960     12959     12967     12962     12960     12959     12971
     12962     12960     12975     12976     12962     12960     12975     12977
     12962     12960     12975     12981     12963     12959     12960     12975
     12963     12959     12967     12968     12963     12959     12967     12969
     12963     12959     12967     12970     12963     12959     12971     12972
     12963     12959     12971     12973     12963     12959     12971     12974
     12964     12963     12959     12967     12964     12963     12959     12971
     12965     12963     12959     12967     12965     12963     12959     12971
     12966     12963     12959     12967     12966     12963     12959     12971
     12967     12959     12960     12975     12967     12959     12971     12972
     12967     12959     12971     12973     12967     12959     12971     12974
     12968     12967     12959     12971     12969     12967     12959     12971
     12970     12967     12959     12971     12971     12959     12960     12975
     12975     12981     12978     12979     12975     12981     12978     12980
     12975     12981     12978     12982     12976     12975     12981     12978
     12977     12975     12981     12978     12978     12982     12983     12984
     12978     12982     12983     12985     12978     12982     12983     12986
     12979     12978     12982     12983     12980     12978     12982     12983
     12981     12978     12982     12983     12982     12983     12986     12987
     12982     12983     12986     12988     12982     12983     12986     12994
     12983     12986     12988     12989     12983     12986     12994     12995
     12983     12986     12994     12996     12983     12986     12994     12997
     12984     12983     12986     12987     12984     12983     12986     12988
     12984     12983     12986     12994     12985     12983     12986     12987
     12985     12983     12986     12988     12985     12983     12986     12994
     12986     12988     12989     12990     12986     12988     12989     12991
     12986     12994     12997     12998     12987     12986     12988     12989
     12987     12986     12994     12995     12987     12986     12994     12996
     12987     12986     12994     12997     12988     12986     12994     12995
     12988     12986     12994     12996     12988     12986     12994     12997
     12988     12989     12991     12992     12988     12989     12991     12993
     12988     12989     12991     13003     12989     12988     12986     12994
     12989     12991     13003     13004     12989     12991     13003     13005
     12989     12991     13003     13006     12990     12989     12991     12992
     12990     12989     12991     12993     12990     12989     12991     13003
     12991     13003     13006     13007     12991     13003     13006     13008
     12991     13003     13006     13009     12992     12991     13003     13004
     12992     12991     13003     13005     12992     12991     13003     13006
     12993     12991     13003     13004     12993     12991     13003     13005
     12993     12991     13003     13006     12994     12997     12998     12999
     12994     12997     12998     13000     12995     12994     12997     12998
     12996     12994     12997     12998     12997     12998     13000     13001
     12997     12998     13000     13002     12997     12998     13000     13050
     12998     13000     13050     13051     12998     13000     13050     13052
     12998     13000     13050     13053     12999     12998     13000     13001
     12999     12998     13000     13002     12999     12998     13000     13050
     13000     13050     13053     13054     13000     13050     13053     13055
     13000     13050     13053     13056     13001     13000     13050     13051
     13001     13000     13050     13052     13001     13000     13050     13053
     13002     13000     13050     13051     13002     13000     13050     13052
     13002     13000     13050     13053     13003     13006     13009     13010
     13003     13006     13009     13011     13003     13006     13009     13012
     13004     13003     13006     13007     13004     13003     13006     13008
     13004     13003     13006     13009     13005     13003     13006     13007
     13005     13003     13006     13008     13005     13003     13006     13009
     13006     13009     13012     13013     13006     13009     13012     13014
     13006     13009     13012     13015     13007     13006     13009     13010
     13007     13006     13009     13011     13007     13006     13009     13012
     13008     13006     13009     13010     13008     13006     13009     13011
     13008     13006     13009     13012     13009     13012     13015     13016
     13009     13012     13015     13017     13009     13012     13015     13018
     13010     13009     13012     13013     13010     13009     13012     13014
     13010     13009     13012     13015     13011     13009     13012     13013
     13011     13009     13012     13014     13011     13009     13012     13015
     13012     13015     13018     13019     13012     13015     13018     13020
     13012     13015     13018     13021     13013     13012     13015     13016
     13013     13012     13015     13017     13013     13012     13015     13018
     13014     13012     13015     13016     13014     13012     13015     13017
     13014     13012     13015     13018     13015     13018     13021     13022
     13015     13018     13021     13023     13016     13015     13018     13019
     13016     13015     13018     13020     13016     13015     13018     13021
     13017     13015     13018     13019     13017     13015     13018     13020
     13017     13015     13018     13021     13018     13021     13023     13024
     13018     13021     13023     13025     13019     13018     13021     13022
     13019     13018     13021     13023     13020     13018     13021     13022
     13020     13018     13021     13023     13021     13023     13025     13026
     13021     13023     13025     13027     13021     13023     13025     13028
     13022     13021     13023     13024     13022     13021     13023     13025
     13023     13025     13028     13029     13023     13025     13028     13030
     13023     13025     13028     13031     13024     13023     13025     13026
     13024     13023     13025     13027     13024     13023     13025     13028
     13025     13028     13031     13032     13025     13028     13031     13033
     13025     13028     13031     13034     13026     13025     13028     13029
     13026     13025     13028     13030     13026     13025     13028     13031
     13027     13025     13028     13029     13027     13025     13028     13030
     13027     13025     13028     13031     13028     13031     13034     13035
     13028     13031     13034     13036     13028     13031     13034     13037
     13029     13028     13031     13032     13029     13028     13031     13033
     13029     13028     13031     13034     13030     13028     13031     13032
     13030     13028     13031     13033     13030     13028     13031     13034
     13031     13034     13037     13038     13031     13034     13037     13039
     13031     13034     13037     13040     13032     13031     13034     13035
     13032     13031     13034     13036     13032     13031     13034     13037
     13033     13031     13034     13035     13033     13031     13034     13036
     13033     13031     13034     13037     13034     13037     13040     13041
     13034     13037     13040     13042     13034     13037     13040     13043
     13035     13034     13037     13038     13035     13034     13037     13039
     13035     13034     13037     13040     13036     13034     13037     13038
     13036     13034     13037     13039     13036     13034     13037     13040
     13037     13040     13043     13044     13037     13040     13043     13045
     13037     13040     13043     13046     13038     13037     13040     13041
     13038     13037     13040     13042     13038     13037     13040     13043
     13039     13037     13040     13041     13039     13037     13040     13042
     13039     13037     13040     13043     13040     13043     13046     13047
     13040     13043     13046     13048     13040     13043     13046     13049
     13041     13040     13043     13044     13041     13040     13043     13045
     13041     13040     13043     13046     13042     13040     13043     13044
     13042     13040     13043     13045     13042     13040     13043     13046
     13044     13043     13046     13047     13044     13043     13046     13048
     13044     13043     13046     13049     13045     13043     13046     13047
     13045     13043     13046     13048     13045     13043     13046     13049
     13050     13053     13056     13057     13050     13053     13056     13058
     13050     13053     13056     13059     13051     13050     13053     13054
     13051     13050     13053     13055     13051     13050     13053     13056
     13052     13050     13053     13054     13052     13050     13053     13055
     13052     13050     13053     13056     13053     13056     13059     13060
     13053     13056     13059     13061     13053     13056     13059     13062
     13054     13053     13056     13057     13054     13053     13056     13058
     13054     13053     13056     13059     13055     13053     13056     13057
     13055     13053     13056     13058     13055     13053     13056     13059
     13056     13059     13062     13063     13056     13059     13062     13064
     13056     13059     13062     13065     13057     13056     13059     13060
     13057     13056     13059     13061     13057     13056     13059     13062
     13058     13056     13059     13060     13058     13056     13059     13061
     13058     13056     13059     13062     13059     13062     13065     13066
     13059     13062     13065     13067     13059     13062     13065     13068
     13060     13059     13062     13063     13060     13059     13062     13064
     13060     13059     13062     13065     13061     13059     13062     13063
     13061     13059     13062     13064     13061     13059     13062     13065
     13062     13065     13068     13069     13062     13065     13068     13070
     13063     13062     13065     13066     13063     13062     13065     13067
     13063     13062     13065     13068     13064     13062     13065     13066
     13064     13062     13065     13067     13064     13062     13065     13068
     13065     13068     13070     13071     13065     13068     13070     13072
     13066     13065     13068     13069     13066     13065     13068     13070
     13067     13065     13068     13069     13067     13065     13068     13070
     13068     13070     13072     13073     13068     13070     13072     13074
     13068     13070     13072     13075     13069     13068     13070     13071
     13069     13068     13070     13072     13070     13072     13075     13076
     13070     13072     13075     13077     13070     13072     13075     13078
     13071     13070     13072     13073     13071     13070     13072     13074
     13071     13070     13072     13075     13072     13075     13078     13079
     13072     13075     13078     13080     13072     13075     13078     13081
     13073     13072     13075     13076     13073     13072     13075     13077
     13073     13072     13075     13078     13074     13072     13075     13076
     13074     13072     13075     13077     13074     13072     13075     13078
     13075     13078     13081     13082     13075     13078     13081     13083
     13075     13078     13081     13084     13076     13075     13078     13079
     13076     13075     13078     13080     13076     13075     13078     13081
     13077     13075     13078     13079     13077     13075     13078     13080
     13077     13075     13078     13081     13078     13081     13084     13085
     13078     13081     13084     13086     13078     13081     13084     13087
     13079     13078     13081     13082     13079     13078     13081     13083
     13079     13078     13081     13084     13080     13078     13081     13082
     13080     13078     13081     13083     13080     13078     13081     13084
     13081     13084     13087     13088     13081     13084     13087     13089
     13081     13084     13087     13090     13082     13081     13084     13085
     13082     13081     13084     13086     13082     13081     13084     13087
     13083     13081     13084     13085     13083     13081     13084     13086
     13083     13081     13084     13087     13084     13087     13090     13091
     13084     13087     13090     13092     13084     13087     13090     13093
     13085     13084     13087     13088     13085     13084     13087     13089
     13085     13084     13087     13090     13086     13084     13087     13088
     13086     13084     13087     13089     13086     13084     13087     13090
     13087     13090     13093     13094     13087     13090     13093     13095
     13087     13090     13093     13096     13088     13087     13090     13091
     13088     13087     13090     13092     13088     13087     13090     13093
     13089     13087     13090     13091     13089     13087     13090     13092
     13089     13087     13090     13093     13091     13090     13093     13094
     13091     13090     13093     13095     13091     13090     13093     13096
     13092     13090     13093     13094     13092     13090     13093     13095
     13092     13090     13093     13096     13097     13101     13104     13105
     13097     13101     13104     13106     13097     13101     13104     13111
     13098     13097     13101     13102     13098     13097     13101     13103
     13098     13097     13101     13104     13099     13097     13101     13102
     13099     13097     13101     13103     13099     13097     13101     13104
     13100     13097     13101     13102     13100     13097     13101     13103
     13100     13097     13101     13104     13101     13104     13111     13107
     13102     13101     13104     13105     13102     13101     13104     13106
     13102     13101     13104     13111     13103     13101     13104     13105
     13103     13101     13104     13106     13103     13101     13104     13111
     13104     13111     13107     13108     13104     13111     13107     13109
     13104     13111     13107     13110     13105     13104     13111     13107
     13106     13104     13111     13107     13107     13110     13112     13113
     13107     13110     13112     13114     13107     13110     13112     13115
     13108     13107     13110     13112     13109     13107     13110     13112
     13110     13112     13115     13116     13110     13112     13115     13117
     13110     13112     13115     13123     13111     13107     13110     13112
     13112     13115     13117     13118     13112     13115     13123     13124
     13112     13115     13123     13125     13112     13115     13123     13126
     13113     13112     13115     13116     13113     13112     13115     13117
     13113     13112     13115     13123     13114     13112     13115     13116
     13114     13112     13115     13117     13114     13112     13115     13123
     13115     13117     13118     13119     13115     13117     13118     13120
     13115     13123     13126     13127     13116     13115     13117     13118
     13116     13115     13123     13124     13116     13115     13123     13125
     13116     13115     13123     13126     13117     13115     13123     13124
     13117     13115     13123     13125     13117     13115     13123     13126
     13117     13118     13120     13121     13117     13118     13120     13122
     13117     13118     13120     13132     13118     13117     13115     13123
     13118     13120     13132     13133     13118     13120     13132     13134
     13118     13120     13132     13135     13119     13118     13120     13121
     13119     13118     13120     13122     13119     13118     13120     13132
     13120     13132     13135     13136     13120     13132     13135     13137
     13120     13132     13135     13138     13121     13120     13132     13133
     13121     13120     13132     13134     13121     13120     13132     13135
     13122     13120     13132     13133     13122     13120     13132     13134
     13122     13120     13132     13135     13123     13126     13127     13128
     13123     13126     13127     13129     13124     13123     13126     13127
     13125     13123     13126     13127     13126     13127     13129     13130
     13126     13127     13129     13131     13126     13127     13129     13179
     13127     13129     13179     13180     13127     13129     13179     13181
     13127     13129     13179     13182     13128     13127     13129     13130
     13128     13127     13129     13131     13128     13127     13129     13179
     13129     13179     13182     13183     13129     13179     13182     13184
     13129     13179     13182     13185     13130     13129     13179     13180
     13130     13129     13179     13181     13130     13129     13179     13182
     13131     13129     13179     13180     13131     13129     13179     13181
     13131     13129     13179     13182     13132     13135     13138     13139
     13132     13135     13138     13140     13132     13135     13138     13141
     13133     13132     13135     13136     13133     13132     13135     13137
     13133     13132     13135     13138     13134     13132     13135     13136
     13134     13132     13135     13137     13134     13132     13135     13138
     13135     13138     13141     13142     13135     13138     13141     13143
     13135     13138     13141     13144     13136     13135     13138     13139
     13136     13135     13138     13140     13136     13135     13138     13141
     13137     13135     13138     13139     13137     13135     13138     13140
     13137     13135     13138     13141     13138     13141     13144     13145
     13138     13141     13144     13146     13138     13141     13144     13147
     13139     13138     13141     13142     13139     13138     13141     13143
     13139     13138     13141     13144     13140     13138     13141     13142
     13140     13138     13141     13143     13140     13138     13141     13144
     13141     13144     13147     13148     13141     13144     13147     13149
     13141     13144     13147     13150     13142     13141     13144     13145
     13142     13141     13144     13146     13142     13141     13144     13147
     13143     13141     13144     13145     13143     13141     13144     13146
     13143     13141     13144     13147     13144     13147     13150     13151
     13144     13147     13150     13152     13145     13144     13147     13148
     13145     13144     13147     13149     13145     13144     13147     13150
     13146     13144     13147     13148     13146     13144     13147     13149
     13146     13144     13147     13150     13147     13150     13152     13153
     13147     13150     13152     13154     13148     13147     13150     13151
     13148     13147     13150     13152     13149     13147     13150     13151
     13149     13147     13150     13152     13150     13152     13154     13155
     13150     13152     13154     13156     13150     13152     13154     13157
     13151     13150     13152     13153     13151     13150     13152     13154
     13152     13154     13157     13158     13152     13154     13157     13159
     13152     13154     13157     13160     13153     13152     13154     13155
     13153     13152     13154     13156     13153     13152     13154     13157
     13154     13157     13160     13161     13154     13157     13160     13162
     13154     13157     13160     13163     13155     13154     13157     13158
     13155     13154     13157     13159     13155     13154     13157     13160
     13156     13154     13157     13158     13156     13154     13157     13159
     13156     13154     13157     13160     13157     13160     13163     13164
     13157     13160     13163     13165     13157     13160     13163     13166
     13158     13157     13160     13161     13158     13157     13160     13162
     13158     13157     13160     13163     13159     13157     13160     13161
     13159     13157     13160     13162     13159     13157     13160     13163
     13160     13163     13166     13167     13160     13163     13166     13168
     13160     13163     13166     13169     13161     13160     13163     13164
     13161     13160     13163     13165     13161     13160     13163     13166
     13162     13160     13163     13164     13162     13160     13163     13165
     13162     13160     13163     13166     13163     13166     13169     13170
     13163     13166     13169     13171     13163     13166     13169     13172
     13164     13163     13166     13167     13164     13163     13166     13168
     13164     13163     13166     13169     13165     13163     13166     13167
     13165     13163     13166     13168     13165     13163     13166     13169
     13166     13169     13172     13173     13166     13169     13172     13174
     13166     13169     13172     13175     13167     13166     13169     13170
     13167     13166     13169     13171     13167     13166     13169     13172
     13168     13166     13169     13170     13168     13166     13169     13171
     13168     13166     13169     13172     13169     13172     13175     13176
     13169     13172     13175     13177     13169     13172     13175     13178
     13170     13169     13172     13173     13170     13169     13172     13174
     13170     13169     13172     13175     13171     13169     13172     13173
     13171     13169     13172     13174     13171     13169     13172     13175
     13173     13172     13175     13176     13173     13172     13175     13177
     13173     13172     13175     13178     13174     13172     13175     13176
     13174     13172     13175     13177     13174     13172     13175     13178
     13179     13182     13185     13186     13179     13182     13185     13187
     13179     13182     13185     13188     13180     13179     13182     13183
     13180     13179     13182     13184     13180     13179     13182     13185
     13181     13179     13182     13183     13181     13179     13182     13184
     13181     13179     13182     13185     13182     13185     13188     13189
     13182     13185     13188     13190     13182     13185     13188     13191
     13183     13182     13185     13186     13183     13182     13185     13187
     13183     13182     13185     13188     13184     13182     13185     13186
     13184     13182     13185     13187     13184     13182     13185     13188
     13185     13188     13191     13192     13185     13188     13191     13193
     13185     13188     13191     13194     13186     13185     13188     13189
     13186     13185     13188     13190     13186     13185     13188     13191
     13187     13185     13188     13189     13187     13185     13188     13190
     13187     13185     13188     13191     13188     13191     13194     13195
     13188     13191     13194     13196     13188     13191     13194     13197
     13189     13188     13191     13192     13189     13188     13191     13193
     13189     13188     13191     13194     13190     13188     13191     13192
     13190     13188     13191     13193     13190     13188     13191     13194
     13191     13194     13197     13198     13191     13194     13197     13199
     13192     13191     13194     13195     13192     13191     13194     13196
     13192     13191     13194     13197     13193     13191     13194     13195
     13193     13191     13194     13196     13193     13191     13194     13197
     13194     13197     13199     13200     13194     13197     13199     13201
     13195     13194     13197     13198     13195     13194     13197     13199
     13196     13194     13197     13198     13196     13194     13197     13199
     13197     13199     13201     13202     13197     13199     13201     13203
     13197     13199     13201     13204     13198     13197     13199     13200
     13198     13197     13199     13201     13199     13201     13204     13205
     13199     13201     13204     13206     13199     13201     13204     13207
     13200     13199     13201     13202     13200     13199     13201     13203
     13200     13199     13201     13204     13201     13204     13207     13208
     13201     13204     13207     13209     13201     13204     13207     13210
     13202     13201     13204     13205     13202     13201     13204     13206
     13202     13201     13204     13207     13203     13201     13204     13205
     13203     13201     13204     13206     13203     13201     13204     13207
     13204     13207     13210     13211     13204     13207     13210     13212
     13204     13207     13210     13213     13205     13204     13207     13208
     13205     13204     13207     13209     13205     13204     13207     13210
     13206     13204     13207     13208     13206     13204     13207     13209
     13206     13204     13207     13210     13207     13210     13213     13214
     13207     13210     13213     13215     13207     13210     13213     13216
     13208     13207     13210     13211     13208     13207     13210     13212
     13208     13207     13210     13213     13209     13207     13210     13211
     13209     13207     13210     13212     13209     13207     13210     13213
     13210     13213     13216     13217     13210     13213     13216     13218
     13210     13213     13216     13219     13211     13210     13213     13214
     13211     13210     13213     13215     13211     13210     13213     13216
     13212     13210     13213     13214     13212     13210     13213     13215
     13212     13210     13213     13216     13213     13216     13219     13220
     13213     13216     13219     13221     13213     13216     13219     13222
     13214     13213     13216     13217     13214     13213     13216     13218
     13214     13213     13216     13219     13215     13213     13216     13217
     13215     13213     13216     13218     13215     13213     13216     13219
     13216     13219     13222     13223     13216     13219     13222     13224
     13216     13219     13222     13225     13217     13216     13219     13220
     13217     13216     13219     13221     13217     13216     13219     13222
     13218     13216     13219     13220     13218     13216     13219     13221
     13218     13216     13219     13222     13220     13219     13222     13223
     13220     13219     13222     13224     13220     13219     13222     13225
     13221     13219     13222     13223     13221     13219     13222     13224
     13221     13219     13222     13225     13226     13230     13233     13234
     13226     13230     13233     13235     13226     13230     13233     13240
     13227     13226     13230     13231     13227     13226     13230     13232
     13227     13226     13230     13233     13228     13226     13230     13231
     13228     13226     13230     13232     13228     13226     13230     13233
     13229     13226     13230     13231     13229     13226     13230     13232
     13229     13226     13230     13233     13230     13233     13240     13236
     13231     13230     13233     13234     13231     13230     13233     13235
     13231     13230     13233     13240     13232     13230     13233     13234
     13232     13230     13233     13235     13232     13230     13233     13240
     13233     13240     13236     13237     13233     13240     13236     13238
     13233     13240     13236     13239     13234     13233     13240     13236
     13235     13233     13240     13236     13236     13239     13241     13242
     13236     13239     13241     13243     13236     13239     13241     13244
     13237     13236     13239     13241     13238     13236     13239     13241
     13239     13241     13244     13245     13239     13241     13244     13246
     13239     13241     13244     13252     13240     13236     13239     13241
     13241     13244     13246     13247     13241     13244     13252     13253
     13241     13244     13252     13254     13241     13244     13252     13255
     13242     13241     13244     13245     13242     13241     13244     13246
     13242     13241     13244     13252     13243     13241     13244     13245
     13243     13241     13244     13246     13243     13241     13244     13252
     13244     13246     13247     13248     13244     13246     13247     13249
     13244     13252     13255     13256     13245     13244     13246     13247
     13245     13244     13252     13253     13245     13244     13252     13254
     13245     13244     13252     13255     13246     13244     13252     13253
     13246     13244     13252     13254     13246     13244     13252     13255
     13246     13247     13249     13250     13246     13247     13249     13251
     13246     13247     13249     13261     13247     13246     13244     13252
     13247     13249     13261     13262     13247     13249     13261     13263
     13247     13249     13261     13264     13248     13247     13249     13250
     13248     13247     13249     13251     13248     13247     13249     13261
     13249     13261     13264     13265     13249     13261     13264     13266
     13249     13261     13264     13267     13250     13249     13261     13262
     13250     13249     13261     13263     13250     13249     13261     13264
     13251     13249     13261     13262     13251     13249     13261     13263
     13251     13249     13261     13264     13252     13255     13256     13257
     13252     13255     13256     13258     13253     13252     13255     13256
     13254     13252     13255     13256     13255     13256     13258     13259
     13255     13256     13258     13260     13255     13256     13258     13308
     13256     13258     13308     13309     13256     13258     13308     13310
     13256     13258     13308     13311     13257     13256     13258     13259
     13257     13256     13258     13260     13257     13256     13258     13308
     13258     13308     13311     13312     13258     13308     13311     13313
     13258     13308     13311     13314     13259     13258     13308     13309
     13259     13258     13308     13310     13259     13258     13308     13311
     13260     13258     13308     13309     13260     13258     13308     13310
     13260     13258     13308     13311     13261     13264     13267     13268
     13261     13264     13267     13269     13261     13264     13267     13270
     13262     13261     13264     13265     13262     13261     13264     13266
     13262     13261     13264     13267     13263     13261     13264     13265
     13263     13261     13264     13266     13263     13261     13264     13267
     13264     13267     13270     13271     13264     13267     13270     13272
     13264     13267     13270     13273     13265     13264     13267     13268
     13265     13264     13267     13269     13265     13264     13267     13270
     13266     13264     13267     13268     13266     13264     13267     13269
     13266     13264     13267     13270     13267     13270     13273     13274
     13267     13270     13273     13275     13267     13270     13273     13276
     13268     13267     13270     13271     13268     13267     13270     13272
     13268     13267     13270     13273     13269     13267     13270     13271
     13269     13267     13270     13272     13269     13267     13270     13273
     13270     13273     13276     13277     13270     13273     13276     13278
     13270     13273     13276     13279     13271     13270     13273     13274
     13271     13270     13273     13275     13271     13270     13273     13276
     13272     13270     13273     13274     13272     13270     13273     13275
     13272     13270     13273     13276     13273     13276     13279     13280
     13273     13276     13279     13281     13274     13273     13276     13277
     13274     13273     13276     13278     13274     13273     13276     13279
     13275     13273     13276     13277     13275     13273     13276     13278
     13275     13273     13276     13279     13276     13279     13281     13282
     13276     13279     13281     13283     13277     13276     13279     13280
     13277     13276     13279     13281     13278     13276     13279     13280
     13278     13276     13279     13281     13279     13281     13283     13284
     13279     13281     13283     13285     13279     13281     13283     13286
     13280     13279     13281     13282     13280     13279     13281     13283
     13281     13283     13286     13287     13281     13283     13286     13288
     13281     13283     13286     13289     13282     13281     13283     13284
     13282     13281     13283     13285     13282     13281     13283     13286
     13283     13286     13289     13290     13283     13286     13289     13291
     13283     13286     13289     13292     13284     13283     13286     13287
     13284     13283     13286     13288     13284     13283     13286     13289
     13285     13283     13286     13287     13285     13283     13286     13288
     13285     13283     13286     13289     13286     13289     13292     13293
     13286     13289     13292     13294     13286     13289     13292     13295
     13287     13286     13289     13290     13287     13286     13289     13291
     13287     13286     13289     13292     13288     13286     13289     13290
     13288     13286     13289     13291     13288     13286     13289     13292
     13289     13292     13295     13296     13289     13292     13295     13297
     13289     13292     13295     13298     13290     13289     13292     13293
     13290     13289     13292     13294     13290     13289     13292     13295
     13291     13289     13292     13293     13291     13289     13292     13294
     13291     13289     13292     13295     13292     13295     13298     13299
     13292     13295     13298     13300     13292     13295     13298     13301
     13293     13292     13295     13296     13293     13292     13295     13297
     13293     13292     13295     13298     13294     13292     13295     13296
     13294     13292     13295     13297     13294     13292     13295     13298
     13295     13298     13301     13302     13295     13298     13301     13303
     13295     13298     13301     13304     13296     13295     13298     13299
     13296     13295     13298     13300     13296     13295     13298     13301
     13297     13295     13298     13299     13297     13295     13298     13300
     13297     13295     13298     13301     13298     13301     13304     13305
     13298     13301     13304     13306     13298     13301     13304     13307
     13299     13298     13301     13302     13299     13298     13301     13303
     13299     13298     13301     13304     13300     13298     13301     13302
     13300     13298     13301     13303     13300     13298     13301     13304
     13302     13301     13304     13305     13302     13301     13304     13306
     13302     13301     13304     13307     13303     13301     13304     13305
     13303     13301     13304     13306     13303     13301     13304     13307
     13308     13311     13314     13315     13308     13311     13314     13316
     13308     13311     13314     13317     13309     13308     13311     13312
     13309     13308     13311     13313     13309     13308     13311     13314
     13310     13308     13311     13312     13310     13308     13311     13313
     13310     13308     13311     13314     13311     13314     13317     13318
     13311     13314     13317     13319     13311     13314     13317     13320
     13312     13311     13314     13315     13312     13311     13314     13316
     13312     13311     13314     13317     13313     13311     13314     13315
     13313     13311     13314     13316     13313     13311     13314     13317
     13314     13317     13320     13321     13314     13317     13320     13322
     13314     13317     13320     13323     13315     13314     13317     13318
     13315     13314     13317     13319     13315     13314     13317     13320
     13316     13314     13317     13318     13316     13314     13317     13319
     13316     13314     13317     13320     13317     13320     13323     13324
     13317     13320     13323     13325     13317     13320     13323     13326
     13318     13317     13320     13321     13318     13317     13320     13322
     13318     13317     13320     13323     13319     13317     13320     13321
     13319     13317     13320     13322     13319     13317     13320     13323
     13320     13323     13326     13327     13320     13323     13326     13328
     13321     13320     13323     13324     13321     13320     13323     13325
     13321     13320     13323     13326     13322     13320     13323     13324
     13322     13320     13323     13325     13322     13320     13323     13326
     13323     13326     13328     13329     13323     13326     13328     13330
     13324     13323     13326     13327     13324     13323     13326     13328
     13325     13323     13326     13327     13325     13323     13326     13328
     13326     13328     13330     13331     13326     13328     13330     13332
     13326     13328     13330     13333     13327     13326     13328     13329
     13327     13326     13328     13330     13328     13330     13333     13334
     13328     13330     13333     13335     13328     13330     13333     13336
     13329     13328     13330     13331     13329     13328     13330     13332
     13329     13328     13330     13333     13330     13333     13336     13337
     13330     13333     13336     13338     13330     13333     13336     13339
     13331     13330     13333     13334     13331     13330     13333     13335
     13331     13330     13333     13336     13332     13330     13333     13334
     13332     13330     13333     13335     13332     13330     13333     13336
     13333     13336     13339     13340     13333     13336     13339     13341
     13333     13336     13339     13342     13334     13333     13336     13337
     13334     13333     13336     13338     13334     13333     13336     13339
     13335     13333     13336     13337     13335     13333     13336     13338
     13335     13333     13336     13339     13336     13339     13342     13343
     13336     13339     13342     13344     13336     13339     13342     13345
     13337     13336     13339     13340     13337     13336     13339     13341
     13337     13336     13339     13342     13338     13336     13339     13340
     13338     13336     13339     13341     13338     13336     13339     13342
     13339     13342     13345     13346     13339     13342     13345     13347
     13339     13342     13345     13348     13340     13339     13342     13343
     13340     13339     13342     13344     13340     13339     13342     13345
     13341     13339     13342     13343     13341     13339     13342     13344
     13341     13339     13342     13345     13342     13345     13348     13349
     13342     13345     13348     13350     13342     13345     13348     13351
     13343     13342     13345     13346     13343     13342     13345     13347
     13343     13342     13345     13348     13344     13342     13345     13346
     13344     13342     13345     13347     13344     13342     13345     13348
     13345     13348     13351     13352     13345     13348     13351     13353
     13345     13348     13351     13354     13346     13345     13348     13349
     13346     13345     13348     13350     13346     13345     13348     13351
     13347     13345     13348     13349     13347     13345     13348     13350
     13347     13345     13348     13351     13349     13348     13351     13352
     13349     13348     13351     13353     13349     13348     13351     13354
     13350     13348     13351     13352     13350     13348     13351     13353
     13350     13348     13351     13354     13355     13368     13371     13372
     13355     13368     13371     13373     13355     13368     13371     13378
     13356     13355     13360     13361     13356     13355     13360     13362
     13356     13355     13360     13363     13356     13355     13364     13365
     13356     13355     13364     13366     13356     13355     13364     13367
     13356     13355     13368     13369     13356     13355     13368     13370
     13356     13355     13368     13371     13357     13356     13355     13360
     13357     13356     13355     13364     13357     13356     13355     13368
     13358     13356     13355     13360     13358     13356     13355     13364
     13358     13356     13355     13368     13359     13356     13355     13360
     13359     13356     13355     13364     13359     13356     13355     13368
     13360     13355     13364     13365     13360     13355     13364     13366
     13360     13355     13364     13367     13360     13355     13368     13369
     13360     13355     13368     13370     13360     13355     13368     13371
     13361     13360     13355     13364     13361     13360     13355     13368
     13362     13360     13355     13364     13362     13360     13355     13368
     13363     13360     13355     13364     13363     13360     13355     13368
     13364     13355     13368     13369     13364     13355     13368     13370
     13364     13355     13368     13371     13365     13364     13355     13368
     13366     13364     13355     13368     13367     13364     13355     13368
     13368     13371     13378     13374     13369     13368     13371     13372
     13369     13368     13371     13373     13369     13368     13371     13378
     13370     13368     13371     13372     13370     13368     13371     13373
     13370     13368     13371     13378     13371     13378     13374     13375
     13371     13378     13374     13376     13371     13378     13374     13377
     13372     13371     13378     13374     13373     13371     13378     13374
     13374     13377     13379     13380     13374     13377     13379     13381
     13374     13377     13379     13384     13375     13374     13377     13379
     13376     13374     13377     13379     13377     13379     13384     13382
     13377     13379     13384     13385     13377     13379     13384     13386
     13378     13374     13377     13379     13379     13384     13382     13383
     13379     13384     13382     13434     13379     13384     13386     13387
     13379     13384     13386     13388     13379     13384     13386     13390
     13380     13379     13384     13382     13380     13379     13384     13385
     13380     13379     13384     13386     13381     13379     13384     13382
     13381     13379     13384     13385     13381     13379     13384     13386
     13382     13384     13386     13387     13382     13384     13386     13388
     13382     13384     13386     13390     13382     13434     13436     13437
     13382     13434     13436     13438     13382     13434     13436     13439
     13383     13382     13384     13385     13383     13382     13384     13386
     13383     13382     13434     13435     13383     13382     13434     13436
     13384     13382     13434     13435     13384     13382     13434     13436
     13384     13386     13388     13389     13384     13386     13390     13391
     13384     13386     13390     13392     13385     13384     13382     13434
     13385     13384     13386     13387     13385     13384     13386     13388
     13385     13384     13386     13390     13386     13384     13382     13434
     13386     13390     13392     13393     13386     13390     13392     13394
     13387     13386     13388     13389     13387     13386     13390     13391
     13387     13386     13390     13392     13388     13386     13390     13391
     13388     13386     13390     13392     13389     13388     13386     13390
     13390     13392     13394     13395     13390     13392     13394     13396
     13390     13392     13394     13397     13391     13390     13392     13393
     13391     13390     13392     13394     13392     13394     13397     13398
     13392     13394     13397     13399     13392     13394     13397     13400
     13393     13392     13394     13395     13393     13392     13394     13396
     13393     13392     13394     13397     13394     13397     13400     13401
     13394     13397     13400     13402     13394     13397     13400     13403
     13395     13394     13397     13398     13395     13394     13397     13399
     13395     13394     13397     13400     13396     13394     13397     13398
     13396     13394     13397     13399     13396     13394     13397     13400
     13397     13400     13403     13404     13397     13400     13403     13405
     13397     13400     13403     13406     13398     13397     13400     13401
     13398     13397     13400     13402     13398     13397     13400     13403
     13399     13397     13400     13401     13399     13397     13400     13402
     13399     13397     13400     13403     13400     13403     13406     13407
     13400     13403     13406     13408     13400     13403     13406     13409
     13401     13400     13403     13404     13401     13400     13403     13405
     13401     13400     13403     13406     13402     13400     13403     13404
     13402     13400     13403     13405     13402     13400     13403     13406
     13403     13406     13409     13410     13403     13406     13409     13411
     13403     13406     13409     13412     13404     13403     13406     13407
     13404     13403     13406     13408     13404     13403     13406     13409
     13405     13403     13406     13407     13405     13403     13406     13408
     13405     13403     13406     13409     13406     13409     13412     13413
     13406     13409     13412     13414     13406     13409     13412     13415
     13407     13406     13409     13410     13407     13406     13409     13411
     13407     13406     13409     13412     13408     13406     13409     13410
     13408     13406     13409     13411     13408     13406     13409     13412
     13409     13412     13415     13416     13409     13412     13415     13417
     13409     13412     13415     13418     13410     13409     13412     13413
     13410     13409     13412     13414     13410     13409     13412     13415
     13411     13409     13412     13413     13411     13409     13412     13414
     13411     13409     13412     13415     13412     13415     13418     13419
     13412     13415     13418     13420     13412     13415     13418     13421
     13413     13412     13415     13416     13413     13412     13415     13417
     13413     13412     13415     13418     13414     13412     13415     13416
     13414     13412     13415     13417     13414     13412     13415     13418
     13415     13418     13421     13422     13415     13418     13421     13423
     13415     13418     13421     13424     13416     13415     13418     13419
     13416     13415     13418     13420     13416     13415     13418     13421
     13417     13415     13418     13419     13417     13415     13418     13420
     13417     13415     13418     13421     13418     13421     13424     13425
     13418     13421     13424     13426     13418     13421     13424     13427
     13419     13418     13421     13422     13419     13418     13421     13423
     13419     13418     13421     13424     13420     13418     13421     13422
     13420     13418     13421     13423     13420     13418     13421     13424
     13421     13424     13427     13428     13421     13424     13427     13429
     13421     13424     13427     13430     13422     13421     13424     13425
     13422     13421     13424     13426     13422     13421     13424     13427
     13423     13421     13424     13425     13423     13421     13424     13426
     13423     13421     13424     13427     13424     13427     13430     13431
     13424     13427     13430     13432     13424     13427     13430     13433
     13425     13424     13427     13428     13425     13424     13427     13429
     13425     13424     13427     13430     13426     13424     13427     13428
     13426     13424     13427     13429     13426     13424     13427     13430
     13428     13427     13430     13431     13428     13427     13430     13432
     13428     13427     13430     13433     13429     13427     13430     13431
     13429     13427     13430     13432     13429     13427     13430     13433
     13434     13436     13439     13440     13434     13436     13439     13441
     13434     13436     13439     13442     13435     13434     13436     13437
     13435     13434     13436     13438     13435     13434     13436     13439
     13436     13439     13442     13443     13436     13439     13442     13444
     13436     13439     13442     13445     13437     13436     13439     13440
     13437     13436     13439     13441     13437     13436     13439     13442
     13438     13436     13439     13440     13438     13436     13439     13441
     13438     13436     13439     13442     13439     13442     13445     13446
     13439     13442     13445     13447     13439     13442     13445     13448
     13440     13439     13442     13443     13440     13439     13442     13444
     13440     13439     13442     13445     13441     13439     13442     13443
     13441     13439     13442     13444     13441     13439     13442     13445
     13442     13445     13448     13449     13442     13445     13448     13450
     13442     13445     13448     13451     13443     13442     13445     13446
     13443     13442     13445     13447     13443     13442     13445     13448
     13444     13442     13445     13446     13444     13442     13445     13447
     13444     13442     13445     13448     13445     13448     13451     13452
     13445     13448     13451     13453     13445     13448     13451     13454
     13446     13445     13448     13449     13446     13445     13448     13450
     13446     13445     13448     13451     13447     13445     13448     13449
     13447     13445     13448     13450     13447     13445     13448     13451
     13448     13451     13454     13455     13448     13451     13454     13456
     13448     13451     13454     13457     13449     13448     13451     13452
     13449     13448     13451     13453     13449     13448     13451     13454
     13450     13448     13451     13452     13450     13448     13451     13453
     13450     13448     13451     13454     13451     13454     13457     13458
     13451     13454     13457     13459     13451     13454     13457     13460
     13452     13451     13454     13455     13452     13451     13454     13456
     13452     13451     13454     13457     13453     13451     13454     13455
     13453     13451     13454     13456     13453     13451     13454     13457
     13454     13457     13460     13461     13454     13457     13460     13462
     13454     13457     13460     13463     13455     13454     13457     13458
     13455     13454     13457     13459     13455     13454     13457     13460
     13456     13454     13457     13458     13456     13454     13457     13459
     13456     13454     13457     13460     13457     13460     13463     13464
     13457     13460     13463     13465     13457     13460     13463     13466
     13458     13457     13460     13461     13458     13457     13460     13462
     13458     13457     13460     13463     13459     13457     13460     13461
     13459     13457     13460     13462     13459     13457     13460     13463
     13460     13463     13466     13467     13460     13463     13466     13468
     13460     13463     13466     13469     13461     13460     13463     13464
     13461     13460     13463     13465     13461     13460     13463     13466
     13462     13460     13463     13464     13462     13460     13463     13465
     13462     13460     13463     13466     13463     13466     13469     13470
     13463     13466     13469     13471     13463     13466     13469     13472
     13464     13463     13466     13467     13464     13463     13466     13468
     13464     13463     13466     13469     13465     13463     13466     13467
     13465     13463     13466     13468     13465     13463     13466     13469
     13466     13469     13472     13473     13466     13469     13472     13474
     13466     13469     13472     13475     13467     13466     13469     13470
     13467     13466     13469     13471     13467     13466     13469     13472
     13468     13466     13469     13470     13468     13466     13469     13471
     13468     13466     13469     13472     13469     13472     13475     13476
     13469     13472     13475     13477     13469     13472     13475     13478
     13470     13469     13472     13473     13470     13469     13472     13474
     13470     13469     13472     13475     13471     13469     13472     13473
     13471     13469     13472     13474     13471     13469     13472     13475
     13472     13475     13478     13479     13472     13475     13478     13480
     13472     13475     13478     13481     13473     13472     13475     13476
     13473     13472     13475     13477     13473     13472     13475     13478
     13474     13472     13475     13476     13474     13472     13475     13477
     13474     13472     13475     13478     13475     13478     13481     13482
     13475     13478     13481     13483     13475     13478     13481     13484
     13476     13475     13478     13479     13476     13475     13478     13480
     13476     13475     13478     13481     13477     13475     13478     13479
     13477     13475     13478     13480     13477     13475     13478     13481
     13478     13481     13484     13485     13478     13481     13484     13486
     13478     13481     13484     13487     13479     13478     13481     13482
     13479     13478     13481     13483     13479     13478     13481     13484
     13480     13478     13481     13482     13480     13478     13481     13483
     13480     13478     13481     13484     13481     13484     13487     13488
     13481     13484     13487     13489     13481     13484     13487     13490
     13482     13481     13484     13485     13482     13481     13484     13486
     13482     13481     13484     13487     13483     13481     13484     13485
     13483     13481     13484     13486     13483     13481     13484     13487
     13484     13487     13490     13491     13484     13487     13490     13492
     13484     13487     13490     13493     13485     13484     13487     13488
     13485     13484     13487     13489     13485     13484     13487     13490
     13486     13484     13487     13488     13486     13484     13487     13489
     13486     13484     13487     13490     13487     13490     13493     13494
     13487     13490     13493     13495     13487     13490     13493     13496
     13488     13487     13490     13491     13488     13487     13490     13492
     13488     13487     13490     13493     13489     13487     13490     13491
     13489     13487     13490     13492     13489     13487     13490     13493
     13490     13493     13496     13497     13490     13493     13496     13498
     13490     13493     13496     13499     13491     13490     13493     13494
     13491     13490     13493     13495     13491     13490     13493     13496
     13492     13490     13493     13494     13492     13490     13493     13495
     13492     13490     13493     13496     13493     13496     13499     13500
     13493     13496     13499     13501     13493     13496     13499     13502
     13494     13493     13496     13497     13494     13493     13496     13498
     13494     13493     13496     13499     13495     13493     13496     13497
     13495     13493     13496     13498     13495     13493     13496     13499
     13497     13496     13499     13500     13497     13496     13499     13501
     13497     13496     13499     13502     13498     13496     13499     13500
     13498     13496     13499     13501     13498     13496     13499     13502
     13503     13507     13510     13511     13503     13507     13510     13541
     13503     13549     13546     13541     13503     13549     13546     13547
     13503     13549     13546     13548     13504     13503     13505     13506
     13504     13503     13507     13508     13504     13503     13507     13509
     13504     13503     13507     13510     13504     13503     13549     13546
     13504     13503     13549     13550     13504     13503     13549     13551
     13505     13503     13507     13508     13505     13503     13507     13509
     13505     13503     13507     13510     13505     13503     13549     13546
     13505     13503     13549     13550     13505     13503     13549     13551
     13506     13505     13503     13507     13506     13505     13503     13549
     13507     13503     13549     13546     13507     13503     13549     13550
     13507     13503     13549     13551     13507     13510     13511     13512
     13507     13510     13511     13513     13507     13510     13541     13539
     13507     13510     13541     13542     13507     13510     13541     13546
     13508     13507     13503     13549     13508     13507     13510     13511
     13508     13507     13510     13541     13509     13507     13503     13549
     13509     13507     13510     13511     13509     13507     13510     13541
     13510     13507     13503     13549     13510     13511     13513     13514
     13510     13511     13513     13515     13510     13511     13513     13516
     13510     13541     13539     13516     13510     13541     13539     13536
     13510     13541     13539     13540     13510     13541     13542     13543
     13510     13541     13542     13544     13510     13541     13542     13545
     13510     13541     13546     13547     13510     13541     13546     13548
     13510     13541     13546     13549     13511     13510     13541     13539
     13511     13510     13541     13542     13511     13510     13541     13546
     13511     13513     13516     13517     13511     13513     13516     13518
     13511     13513     13516     13539     13512     13511     13510     13541
     13512     13511     13513     13514     13512     13511     13513     13515
     13512     13511     13513     13516     13513     13511     13510     13541
     13513     13516     13518     13519     13513     13516     13518     13520
     13513     13516     13518     13528     13513     13516     13539     13536
     13513     13516     13539     13540     13513     13516     13539     13541
     13514     13513     13516     13517     13514     13513     13516     13518
     13514     13513     13516     13539     13515     13513     13516     13517
     13515     13513     13516     13518     13515     13513     13516     13539
     13516     13518     13520     13521     13516     13518     13520     13522
     13516     13518     13520     13523     13516     13518     13528     13526
     13516     13518     13528     13529     13516     13518     13528     13533
     13516     13539     13536     13533     13516     13539     13536     13537
     13516     13539     13536     13538     13516     13539     13541     13542
     13516     13539     13541     13546     13517     13516     13518     13519
     13517     13516     13518     13520     13517     13516     13518     13528
     13517     13516     13539     13536     13517     13516     13539     13540
     13517     13516     13539     13541     13518     13516     13539     13536
     13518     13516     13539     13540     13518     13516     13539     13541
     13518     13520     13523     13524     13518     13520     13523     13525
     13518     13520     13523     13526     13518     13528     13526     13523
     13518     13528     13526     13527     13518     13528     13526     13552
     13518     13528     13529     13530     13518     13528     13529     13531
     13518     13528     13529     13532     13518     13528     13533     13534
     13518     13528     13533     13535     13518     13528     13533     13536
     13519     13518     13516     13539     13519     13518     13520     13521
     13519     13518     13520     13522     13519     13518     13520     13523
     13519     13518     13528     13526     13519     13518     13528     13529
     13519     13518     13528     13533     13520     13518     13516     13539
     13520     13518     13528     13526     13520     13518     13528     13529
     13520     13518     13528     13533     13520     13523     13526     13527
     13520     13523     13526     13528     13520     13523     13526     13552
     13521     13520     13518     13528     13521     13520     13523     13524
     13521     13520     13523     13525     13521     13520     13523     13526
     13522     13520     13518     13528     13522     13520     13523     13524
     13522     13520     13523     13525     13522     13520     13523     13526
     13523     13520     13518     13528     13523     13526     13528     13529
     13523     13526     13528     13533     13523     13526     13552     13553
     13523     13526     13552     13554     13523     13526     13552     13558
     13524     13523     13526     13527     13524     13523     13526     13528
     13524     13523     13526     13552     13525     13523     13526     13527
     13525     13523     13526     13528     13525     13523     13526     13552
     13526     13528     13529     13530     13526     13528     13529     13531
     13526     13528     13529     13532     13526     13528     13533     13534
     13526     13528     13533     13535     13526     13528     13533     13536
     13526     13552     13554     13555     13526     13552     13554     13556
     13526     13552     13554     13557     13526     13552     13558     13559
     13526     13552     13558     13560     13526     13552     13558     13561
     13527     13526     13528     13529     13527     13526     13528     13533
     13527     13526     13552     13553     13527     13526     13552     13554
     13527     13526     13552     13558     13528     13518     13516     13539
     13528     13526     13552     13553     13528     13526     13552     13554
     13528     13526     13552     13558     13528     13533     13536     13537
     13528     13533     13536     13538     13528     13533     13536     13539
     13529     13528     13526     13552     13529     13528     13533     13534
     13529     13528     13533     13535     13529     13528     13533     13536
     13530     13529     13528     13533     13531     13529     13528     13533
     13532     13529     13528     13533     13533     13528     13526     13552
     13533     13536     13539     13540     13533     13536     13539     13541
     13534     13533     13536     13537     13534     13533     13536     13538
     13534     13533     13536     13539     13535     13533     13536     13537
     13535     13533     13536     13538     13535     13533     13536     13539
     13536     13539     13541     13542     13536     13539     13541     13546
     13537     13536     13539     13540     13537     13536     13539     13541
     13538     13536     13539     13540     13538     13536     13539     13541
     13539     13541     13542     13543     13539     13541     13542     13544
     13539     13541     13542     13545     13539     13541     13546     13547
     13539     13541     13546     13548     13539     13541     13546     13549
     13540     13539     13541     13542     13540     13539     13541     13546
     13541     13546     13549     13550     13541     13546     13549     13551
     13542     13541     13546     13547     13542     13541     13546     13548
     13542     13541     13546     13549     13543     13542     13541     13546
     13544     13542     13541     13546     13545     13542     13541     13546
     13547     13546     13549     13550     13547     13546     13549     13551
     13548     13546     13549     13550     13548     13546     13549     13551
     13552     13558     13561     13562     13552     13558     13561     13563
     13552     13558     13561     13564     13553     13552     13554     13555
     13553     13552     13554     13556     13553     13552     13554     13557
     13553     13552     13558     13559     13553     13552     13558     13560
     13553     13552     13558     13561     13554     13552     13558     13559
     13554     13552     13558     13560     13554     13552     13558     13561
     13555     13554     13552     13558     13556     13554     13552     13558
     13557     13554     13552     13558     13558     13561     13564     13565
     13558     13561     13564     13566     13558     13561     13564     13567
     13559     13558     13561     13562     13559     13558     13561     13563
     13559     13558     13561     13564     13560     13558     13561     13562
     13560     13558     13561     13563     13560     13558     13561     13564
     13561     13564     13567     13568     13561     13564     13567     13569
     13561     13564     13567     13573     13562     13561     13564     13565
     13562     13561     13564     13566     13562     13561     13564     13567
     13563     13561     13564     13565     13563     13561     13564     13566
     13563     13561     13564     13567     13564     13567     13569     13570
     13564     13567     13569     13571     13564     13567     13569     13572
     13564     13567     13573     13574     13564     13567     13573     13575
     13564     13567     13573     13576     13565     13564     13567     13568
     13565     13564     13567     13569     13565     13564     13567     13573
     13566     13564     13567     13568     13566     13564     13567     13569
     13566     13564     13567     13573     13568     13567     13569     13570
     13568     13567     13569     13571     13568     13567     13569     13572
     13568     13567     13573     13574     13568     13567     13573     13575
     13568     13567     13573     13576     13569     13567     13573     13574
     13569     13567     13573     13575     13569     13567     13573     13576
     13570     13569     13567     13573     13571     13569     13567     13573
     13572     13569     13567     13573     13577     13581     13584     13585
     13577     13581     13584     13615     13577     13623     13620     13615
     13577     13623     13620     13621     13577     13623     13620     13622
     13578     13577     13579     13580     13578     13577     13581     13582
     13578     13577     13581     13583     13578     13577     13581     13584
     13578     13577     13623     13620     13578     13577     13623     13624
     13578     13577     13623     13625     13579     13577     13581     13582
     13579     13577     13581     13583     13579     13577     13581     13584
     13579     13577     13623     13620     13579     13577     13623     13624
     13579     13577     13623     13625     13580     13579     13577     13581
     13580     13579     13577     13623     13581     13577     13623     13620
     13581     13577     13623     13624     13581     13577     13623     13625
     13581     13584     13585     13586     13581     13584     13585     13587
     13581     13584     13615     13613     13581     13584     13615     13616
     13581     13584     13615     13620     13582     13581     13577     13623
     13582     13581     13584     13585     13582     13581     13584     13615
     13583     13581     13577     13623     13583     13581     13584     13585
     13583     13581     13584     13615     13584     13581     13577     13623
     13584     13585     13587     13588     13584     13585     13587     13589
     13584     13585     13587     13590     13584     13615     13613     13590
     13584     13615     13613     13610     13584     13615     13613     13614
     13584     13615     13616     13617     13584     13615     13616     13618
     13584     13615     13616     13619     13584     13615     13620     13621
     13584     13615     13620     13622     13584     13615     13620     13623
     13585     13584     13615     13613     13585     13584     13615     13616
     13585     13584     13615     13620     13585     13587     13590     13591
     13585     13587     13590     13592     13585     13587     13590     13613
     13586     13585     13584     13615     13586     13585     13587     13588
     13586     13585     13587     13589     13586     13585     13587     13590
     13587     13585     13584     13615     13587     13590     13592     13593
     13587     13590     13592     13594     13587     13590     13592     13602
     13587     13590     13613     13610     13587     13590     13613     13614
     13587     13590     13613     13615     13588     13587     13590     13591
     13588     13587     13590     13592     13588     13587     13590     13613
     13589     13587     13590     13591     13589     13587     13590     13592
     13589     13587     13590     13613     13590     13592     13594     13595
     13590     13592     13594     13596     13590     13592     13594     13597
     13590     13592     13602     13600     13590     13592     13602     13603
     13590     13592     13602     13607     13590     13613     13610     13607
     13590     13613     13610     13611     13590     13613     13610     13612
     13590     13613     13615     13616     13590     13613     13615     13620
     13591     13590     13592     13593     13591     13590     13592     13594
     13591     13590     13592     13602     13591     13590     13613     13610
     13591     13590     13613     13614     13591     13590     13613     13615
     13592     13590     13613     13610     13592     13590     13613     13614
     13592     13590     13613     13615     13592     13594     13597     13598
     13592     13594     13597     13599     13592     13594     13597     13600
     13592     13602     13600     13597     13592     13602     13600     13601
     13592     13602     13600     13626     13592     13602     13603     13604
     13592     13602     13603     13605     13592     13602     13603     13606
     13592     13602     13607     13608     13592     13602     13607     13609
     13592     13602     13607     13610     13593     13592     13590     13613
     13593     13592     13594     13595     13593     13592     13594     13596
     13593     13592     13594     13597     13593     13592     13602     13600
     13593     13592     13602     13603     13593     13592     13602     13607
     13594     13592     13590     13613     13594     13592     13602     13600
     13594     13592     13602     13603     13594     13592     13602     13607
     13594     13597     13600     13601     13594     13597     13600     13602
     13594     13597     13600     13626     13595     13594     13592     13602
     13595     13594     13597     13598     13595     13594     13597     13599
     13595     13594     13597     13600     13596     13594     13592     13602
     13596     13594     13597     13598     13596     13594     13597     13599
     13596     13594     13597     13600     13597     13594     13592     13602
     13597     13600     13602     13603     13597     13600     13602     13607
     13597     13600     13626     13627     13597     13600     13626     13628
     13597     13600     13626     13632     13598     13597     13600     13601
     13598     13597     13600     13602     13598     13597     13600     13626
     13599     13597     13600     13601     13599     13597     13600     13602
     13599     13597     13600     13626     13600     13602     13603     13604
     13600     13602     13603     13605     13600     13602     13603     13606
     13600     13602     13607     13608     13600     13602     13607     13609
     13600     13602     13607     13610     13600     13626     13628     13629
     13600     13626     13628     13630     13600     13626     13628     13631
     13600     13626     13632     13633     13600     13626     13632     13634
     13600     13626     13632     13635     13601     13600     13602     13603
     13601     13600     13602     13607     13601     13600     13626     13627
     13601     13600     13626     13628     13601     13600     13626     13632
     13602     13592     13590     13613     13602     13600     13626     13627
     13602     13600     13626     13628     13602     13600     13626     13632
     13602     13607     13610     13611     13602     13607     13610     13612
     13602     13607     13610     13613     13603     13602     13600     13626
     13603     13602     13607     13608     13603     13602     13607     13609
     13603     13602     13607     13610     13604     13603     13602     13607
     13605     13603     13602     13607     13606     13603     13602     13607
     13607     13602     13600     13626     13607     13610     13613     13614
     13607     13610     13613     13615     13608     13607     13610     13611
     13608     13607     13610     13612     13608     13607     13610     13613
     13609     13607     13610     13611     13609     13607     13610     13612
     13609     13607     13610     13613     13610     13613     13615     13616
     13610     13613     13615     13620     13611     13610     13613     13614
     13611     13610     13613     13615     13612     13610     13613     13614
     13612     13610     13613     13615     13613     13615     13616     13617
     13613     13615     13616     13618     13613     13615     13616     13619
     13613     13615     13620     13621     13613     13615     13620     13622
     13613     13615     13620     13623     13614     13613     13615     13616
     13614     13613     13615     13620     13615     13620     13623     13624
     13615     13620     13623     13625     13616     13615     13620     13621
     13616     13615     13620     13622     13616     13615     13620     13623
     13617     13616     13615     13620     13618     13616     13615     13620
     13619     13616     13615     13620     13621     13620     13623     13624
     13621     13620     13623     13625     13622     13620     13623     13624
     13622     13620     13623     13625     13626     13632     13635     13636
     13626     13632     13635     13637     13626     13632     13635     13638
     13627     13626     13628     13629     13627     13626     13628     13630
     13627     13626     13628     13631     13627     13626     13632     13633
     13627     13626     13632     13634     13627     13626     13632     13635
     13628     13626     13632     13633     13628     13626     13632     13634
     13628     13626     13632     13635     13629     13628     13626     13632
     13630     13628     13626     13632     13631     13628     13626     13632
     13632     13635     13638     13639     13632     13635     13638     13640
     13632     13635     13638     13641     13633     13632     13635     13636
     13633     13632     13635     13637     13633     13632     13635     13638
     13634     13632     13635     13636     13634     13632     13635     13637
     13634     13632     13635     13638     13635     13638     13641     13642
     13635     13638     13641     13643     13635     13638     13641     13647
     13636     13635     13638     13639     13636     13635     13638     13640
     13636     13635     13638     13641     13637     13635     13638     13639
     13637     13635     13638     13640     13637     13635     13638     13641
     13638     13641     13643     13644     13638     13641     13643     13645
     13638     13641     13643     13646     13638     13641     13647     13648
     13638     13641     13647     13649     13638     13641     13647     13650
     13639     13638     13641     13642     13639     13638     13641     13643
     13639     13638     13641     13647     13640     13638     13641     13642
     13640     13638     13641     13643     13640     13638     13641     13647
     13642     13641     13643     13644     13642     13641     13643     13645
     13642     13641     13643     13646     13642     13641     13647     13648
     13642     13641     13647     13649     13642     13641     13647     13650
     13643     13641     13647     13648     13643     13641     13647     13649
     13643     13641     13647     13650     13644     13643     13641     13647
     13645     13643     13641     13647     13646     13643     13641     13647
     13651     13655     13658     13659     13651     13655     13658     13689
     13651     13697     13694     13689     13651     13697     13694     13695
     13651     13697     13694     13696     13652     13651     13653     13654
     13652     13651     13655     13656     13652     13651     13655     13657
     13652     13651     13655     13658     13652     13651     13697     13694
     13652     13651     13697     13698     13652     13651     13697     13699
     13653     13651     13655     13656     13653     13651     13655     13657
     13653     13651     13655     13658     13653     13651     13697     13694
     13653     13651     13697     13698     13653     13651     13697     13699
     13654     13653     13651     13655     13654     13653     13651     13697
     13655     13651     13697     13694     13655     13651     13697     13698
     13655     13651     13697     13699     13655     13658     13659     13660
     13655     13658     13659     13661     13655     13658     13689     13687
     13655     13658     13689     13690     13655     13658     13689     13694
     13656     13655     13651     13697     13656     13655     13658     13659
     13656     13655     13658     13689     13657     13655     13651     13697
     13657     13655     13658     13659     13657     13655     13658     13689
     13658     13655     13651     13697     13658     13659     13661     13662
     13658     13659     13661     13663     13658     13659     13661     13664
     13658     13689     13687     13664     13658     13689     13687     13684
     13658     13689     13687     13688     13658     13689     13690     13691
     13658     13689     13690     13692     13658     13689     13690     13693
     13658     13689     13694     13695     13658     13689     13694     13696
     13658     13689     13694     13697     13659     13658     13689     13687
     13659     13658     13689     13690     13659     13658     13689     13694
     13659     13661     13664     13665     13659     13661     13664     13666
     13659     13661     13664     13687     13660     13659     13658     13689
     13660     13659     13661     13662     13660     13659     13661     13663
     13660     13659     13661     13664     13661     13659     13658     13689
     13661     13664     13666     13667     13661     13664     13666     13668
     13661     13664     13666     13676     13661     13664     13687     13684
     13661     13664     13687     13688     13661     13664     13687     13689
     13662     13661     13664     13665     13662     13661     13664     13666
     13662     13661     13664     13687     13663     13661     13664     13665
     13663     13661     13664     13666     13663     13661     13664     13687
     13664     13666     13668     13669     13664     13666     13668     13670
     13664     13666     13668     13671     13664     13666     13676     13674
     13664     13666     13676     13677     13664     13666     13676     13681
     13664     13687     13684     13681     13664     13687     13684     13685
     13664     13687     13684     13686     13664     13687     13689     13690
     13664     13687     13689     13694     13665     13664     13666     13667
     13665     13664     13666     13668     13665     13664     13666     13676
     13665     13664     13687     13684     13665     13664     13687     13688
     13665     13664     13687     13689     13666     13664     13687     13684
     13666     13664     13687     13688     13666     13664     13687     13689
     13666     13668     13671     13672     13666     13668     13671     13673
     13666     13668     13671     13674     13666     13676     13674     13671
     13666     13676     13674     13675     13666     13676     13674     13700
     13666     13676     13677     13678     13666     13676     13677     13679
     13666     13676     13677     13680     13666     13676     13681     13682
     13666     13676     13681     13683     13666     13676     13681     13684
     13667     13666     13664     13687     13667     13666     13668     13669
     13667     13666     13668     13670     13667     13666     13668     13671
     13667     13666     13676     13674     13667     13666     13676     13677
     13667     13666     13676     13681     13668     13666     13664     13687
     13668     13666     13676     13674     13668     13666     13676     13677
     13668     13666     13676     13681     13668     13671     13674     13675
     13668     13671     13674     13676     13668     13671     13674     13700
     13669     13668     13666     13676     13669     13668     13671     13672
     13669     13668     13671     13673     13669     13668     13671     13674
     13670     13668     13666     13676     13670     13668     13671     13672
     13670     13668     13671     13673     13670     13668     13671     13674
     13671     13668     13666     13676     13671     13674     13676     13677
     13671     13674     13676     13681     13671     13674     13700     13701
     13671     13674     13700     13702     13671     13674     13700     13706
     13672     13671     13674     13675     13672     13671     13674     13676
     13672     13671     13674     13700     13673     13671     13674     13675
     13673     13671     13674     13676     13673     13671     13674     13700
     13674     13676     13677     13678     13674     13676     13677     13679
     13674     13676     13677     13680     13674     13676     13681     13682
     13674     13676     13681     13683     13674     13676     13681     13684
     13674     13700     13702     13703     13674     13700     13702     13704
     13674     13700     13702     13705     13674     13700     13706     13707
     13674     13700     13706     13708     13674     13700     13706     13709
     13675     13674     13676     13677     13675     13674     13676     13681
     13675     13674     13700     13701     13675     13674     13700     13702
     13675     13674     13700     13706     13676     13666     13664     13687
     13676     13674     13700     13701     13676     13674     13700     13702
     13676     13674     13700     13706     13676     13681     13684     13685
     13676     13681     13684     13686     13676     13681     13684     13687
     13677     13676     13674     13700     13677     13676     13681     13682
     13677     13676     13681     13683     13677     13676     13681     13684
     13678     13677     13676     13681     13679     13677     13676     13681
     13680     13677     13676     13681     13681     13676     13674     13700
     13681     13684     13687     13688     13681     13684     13687     13689
     13682     13681     13684     13685     13682     13681     13684     13686
     13682     13681     13684     13687     13683     13681     13684     13685
     13683     13681     13684     13686     13683     13681     13684     13687
     13684     13687     13689     13690     13684     13687     13689     13694
     13685     13684     13687     13688     13685     13684     13687     13689
     13686     13684     13687     13688     13686     13684     13687     13689
     13687     13689     13690     13691     13687     13689     13690     13692
     13687     13689     13690     13693     13687     13689     13694     13695
     13687     13689     13694     13696     13687     13689     13694     13697
     13688     13687     13689     13690     13688     13687     13689     13694
     13689     13694     13697     13698     13689     13694     13697     13699
     13690     13689     13694     13695     13690     13689     13694     13696
     13690     13689     13694     13697     13691     13690     13689     13694
     13692     13690     13689     13694     13693     13690     13689     13694
     13695     13694     13697     13698     13695     13694     13697     13699
     13696     13694     13697     13698     13696     13694     13697     13699
     13700     13706     13709     13710     13700     13706     13709     13711
     13700     13706     13709     13712     13701     13700     13702     13703
     13701     13700     13702     13704     13701     13700     13702     13705
     13701     13700     13706     13707     13701     13700     13706     13708
     13701     13700     13706     13709     13702     13700     13706     13707
     13702     13700     13706     13708     13702     13700     13706     13709
     13703     13702     13700     13706     13704     13702     13700     13706
     13705     13702     13700     13706     13706     13709     13712     13713
     13706     13709     13712     13714     13706     13709     13712     13715
     13707     13706     13709     13710     13707     13706     13709     13711
     13707     13706     13709     13712     13708     13706     13709     13710
     13708     13706     13709     13711     13708     13706     13709     13712
     13709     13712     13715     13716     13709     13712     13715     13717
     13709     13712     13715     13721     13710     13709     13712     13713
     13710     13709     13712     13714     13710     13709     13712     13715
     13711     13709     13712     13713     13711     13709     13712     13714
     13711     13709     13712     13715     13712     13715     13717     13718
     13712     13715     13717     13719     13712     13715     13717     13720
     13712     13715     13721     13722     13712     13715     13721     13723
     13712     13715     13721     13724     13713     13712     13715     13716
     13713     13712     13715     13717     13713     13712     13715     13721
     13714     13712     13715     13716     13714     13712     13715     13717
     13714     13712     13715     13721     13716     13715     13717     13718
     13716     13715     13717     13719     13716     13715     13717     13720
     13716     13715     13721     13722     13716     13715     13721     13723
     13716     13715     13721     13724     13717     13715     13721     13722
     13717     13715     13721     13723     13717     13715     13721     13724
     13718     13717     13715     13721     13719     13717     13715     13721
     13720     13717     13715     13721     13725     13738     13741     13742
     13725     13738     13741     13743     13725     13738     13741     13748
     13726     13725     13730     13731     13726     13725     13730     13732
     13726     13725     13730     13733     13726     13725     13734     13735
     13726     13725     13734     13736     13726     13725     13734     13737
     13726     13725     13738     13739     13726     13725     13738     13740
     13726     13725     13738     13741     13727     13726     13725     13730
     13727     13726     13725     13734     13727     13726     13725     13738
     13728     13726     13725     13730     13728     13726     13725     13734
     13728     13726     13725     13738     13729     13726     13725     13730
     13729     13726     13725     13734     13729     13726     13725     13738
     13730     13725     13734     13735     13730     13725     13734     13736
     13730     13725     13734     13737     13730     13725     13738     13739
     13730     13725     13738     13740     13730     13725     13738     13741
     13731     13730     13725     13734     13731     13730     13725     13738
     13732     13730     13725     13734     13732     13730     13725     13738
     13733     13730     13725     13734     13733     13730     13725     13738
     13734     13725     13738     13739     13734     13725     13738     13740
     13734     13725     13738     13741     13735     13734     13725     13738
     13736     13734     13725     13738     13737     13734     13725     13738
     13738     13741     13748     13744     13739     13738     13741     13742
     13739     13738     13741     13743     13739     13738     13741     13748
     13740     13738     13741     13742     13740     13738     13741     13743
     13740     13738     13741     13748     13741     13748     13744     13745
     13741     13748     13744     13746     13741     13748     13744     13747
     13742     13741     13748     13744     13743     13741     13748     13744
     13744     13747     13749     13750     13744     13747     13749     13751
     13744     13747     13749     13754     13745     13744     13747     13749
     13746     13744     13747     13749     13747     13749     13754     13752
     13747     13749     13754     13755     13747     13749     13754     13756
     13748     13744     13747     13749     13749     13754     13752     13753
     13749     13754     13752     13804     13749     13754     13756     13757
     13749     13754     13756     13758     13749     13754     13756     13760
     13750     13749     13754     13752     13750     13749     13754     13755
     13750     13749     13754     13756     13751     13749     13754     13752
     13751     13749     13754     13755     13751     13749     13754     13756
     13752     13754     13756     13757     13752     13754     13756     13758
     13752     13754     13756     13760     13752     13804     13806     13807
     13752     13804     13806     13808     13752     13804     13806     13809
     13753     13752     13754     13755     13753     13752     13754     13756
     13753     13752     13804     13805     13753     13752     13804     13806
     13754     13752     13804     13805     13754     13752     13804     13806
     13754     13756     13758     13759     13754     13756     13760     13761
     13754     13756     13760     13762     13755     13754     13752     13804
     13755     13754     13756     13757     13755     13754     13756     13758
     13755     13754     13756     13760     13756     13754     13752     13804
     13756     13760     13762     13763     13756     13760     13762     13764
     13757     13756     13758     13759     13757     13756     13760     13761
     13757     13756     13760     13762     13758     13756     13760     13761
     13758     13756     13760     13762     13759     13758     13756     13760
     13760     13762     13764     13765     13760     13762     13764     13766
     13760     13762     13764     13767     13761     13760     13762     13763
     13761     13760     13762     13764     13762     13764     13767     13768
     13762     13764     13767     13769     13762     13764     13767     13770
     13763     13762     13764     13765     13763     13762     13764     13766
     13763     13762     13764     13767     13764     13767     13770     13771
     13764     13767     13770     13772     13764     13767     13770     13773
     13765     13764     13767     13768     13765     13764     13767     13769
     13765     13764     13767     13770     13766     13764     13767     13768
     13766     13764     13767     13769     13766     13764     13767     13770
     13767     13770     13773     13774     13767     13770     13773     13775
     13767     13770     13773     13776     13768     13767     13770     13771
     13768     13767     13770     13772     13768     13767     13770     13773
     13769     13767     13770     13771     13769     13767     13770     13772
     13769     13767     13770     13773     13770     13773     13776     13777
     13770     13773     13776     13778     13770     13773     13776     13779
     13771     13770     13773     13774     13771     13770     13773     13775
     13771     13770     13773     13776     13772     13770     13773     13774
     13772     13770     13773     13775     13772     13770     13773     13776
     13773     13776     13779     13780     13773     13776     13779     13781
     13773     13776     13779     13782     13774     13773     13776     13777
     13774     13773     13776     13778     13774     13773     13776     13779
     13775     13773     13776     13777     13775     13773     13776     13778
     13775     13773     13776     13779     13776     13779     13782     13783
     13776     13779     13782     13784     13776     13779     13782     13785
     13777     13776     13779     13780     13777     13776     13779     13781
     13777     13776     13779     13782     13778     13776     13779     13780
     13778     13776     13779     13781     13778     13776     13779     13782
     13779     13782     13785     13786     13779     13782     13785     13787
     13779     13782     13785     13788     13780     13779     13782     13783
     13780     13779     13782     13784     13780     13779     13782     13785
     13781     13779     13782     13783     13781     13779     13782     13784
     13781     13779     13782     13785     13782     13785     13788     13789
     13782     13785     13788     13790     13782     13785     13788     13791
     13783     13782     13785     13786     13783     13782     13785     13787
     13783     13782     13785     13788     13784     13782     13785     13786
     13784     13782     13785     13787     13784     13782     13785     13788
     13785     13788     13791     13792     13785     13788     13791     13793
     13785     13788     13791     13794     13786     13785     13788     13789
     13786     13785     13788     13790     13786     13785     13788     13791
     13787     13785     13788     13789     13787     13785     13788     13790
     13787     13785     13788     13791     13788     13791     13794     13795
     13788     13791     13794     13796     13788     13791     13794     13797
     13789     13788     13791     13792     13789     13788     13791     13793
     13789     13788     13791     13794     13790     13788     13791     13792
     13790     13788     13791     13793     13790     13788     13791     13794
     13791     13794     13797     13798     13791     13794     13797     13799
     13791     13794     13797     13800     13792     13791     13794     13795
     13792     13791     13794     13796     13792     13791     13794     13797
     13793     13791     13794     13795     13793     13791     13794     13796
     13793     13791     13794     13797     13794     13797     13800     13801
     13794     13797     13800     13802     13794     13797     13800     13803
     13795     13794     13797     13798     13795     13794     13797     13799
     13795     13794     13797     13800     13796     13794     13797     13798
     13796     13794     13797     13799     13796     13794     13797     13800
     13798     13797     13800     13801     13798     13797     13800     13802
     13798     13797     13800     13803     13799     13797     13800     13801
     13799     13797     13800     13802     13799     13797     13800     13803
     13804     13806     13809     13810     13804     13806     13809     13811
     13804     13806     13809     13812     13805     13804     13806     13807
     13805     13804     13806     13808     13805     13804     13806     13809
     13806     13809     13812     13813     13806     13809     13812     13814
     13806     13809     13812     13815     13807     13806     13809     13810
     13807     13806     13809     13811     13807     13806     13809     13812
     13808     13806     13809     13810     13808     13806     13809     13811
     13808     13806     13809     13812     13809     13812     13815     13816
     13809     13812     13815     13817     13809     13812     13815     13818
     13810     13809     13812     13813     13810     13809     13812     13814
     13810     13809     13812     13815     13811     13809     13812     13813
     13811     13809     13812     13814     13811     13809     13812     13815
     13812     13815     13818     13819     13812     13815     13818     13820
     13812     13815     13818     13821     13813     13812     13815     13816
     13813     13812     13815     13817     13813     13812     13815     13818
     13814     13812     13815     13816     13814     13812     13815     13817
     13814     13812     13815     13818     13815     13818     13821     13822
     13815     13818     13821     13823     13815     13818     13821     13824
     13816     13815     13818     13819     13816     13815     13818     13820
     13816     13815     13818     13821     13817     13815     13818     13819
     13817     13815     13818     13820     13817     13815     13818     13821
     13818     13821     13824     13825     13818     13821     13824     13826
     13818     13821     13824     13827     13819     13818     13821     13822
     13819     13818     13821     13823     13819     13818     13821     13824
     13820     13818     13821     13822     13820     13818     13821     13823
     13820     13818     13821     13824     13821     13824     13827     13828
     13821     13824     13827     13829     13821     13824     13827     13830
     13822     13821     13824     13825     13822     13821     13824     13826
     13822     13821     13824     13827     13823     13821     13824     13825
     13823     13821     13824     13826     13823     13821     13824     13827
     13824     13827     13830     13831     13824     13827     13830     13832
     13824     13827     13830     13833     13825     13824     13827     13828
     13825     13824     13827     13829     13825     13824     13827     13830
     13826     13824     13827     13828     13826     13824     13827     13829
     13826     13824     13827     13830     13827     13830     13833     13834
     13827     13830     13833     13835     13827     13830     13833     13836
     13828     13827     13830     13831     13828     13827     13830     13832
     13828     13827     13830     13833     13829     13827     13830     13831
     13829     13827     13830     13832     13829     13827     13830     13833
     13830     13833     13836     13837     13830     13833     13836     13838
     13830     13833     13836     13839     13831     13830     13833     13834
     13831     13830     13833     13835     13831     13830     13833     13836
     13832     13830     13833     13834     13832     13830     13833     13835
     13832     13830     13833     13836     13833     13836     13839     13840
     13833     13836     13839     13841     13833     13836     13839     13842
     13834     13833     13836     13837     13834     13833     13836     13838
     13834     13833     13836     13839     13835     13833     13836     13837
     13835     13833     13836     13838     13835     13833     13836     13839
     13836     13839     13842     13843     13836     13839     13842     13844
     13836     13839     13842     13845     13837     13836     13839     13840
     13837     13836     13839     13841     13837     13836     13839     13842
     13838     13836     13839     13840     13838     13836     13839     13841
     13838     13836     13839     13842     13839     13842     13845     13846
     13839     13842     13845     13847     13839     13842     13845     13848
     13840     13839     13842     13843     13840     13839     13842     13844
     13840     13839     13842     13845     13841     13839     13842     13843
     13841     13839     13842     13844     13841     13839     13842     13845
     13842     13845     13848     13849     13842     13845     13848     13850
     13842     13845     13848     13851     13843     13842     13845     13846
     13843     13842     13845     13847     13843     13842     13845     13848
     13844     13842     13845     13846     13844     13842     13845     13847
     13844     13842     13845     13848     13845     13848     13851     13852
     13845     13848     13851     13853     13845     13848     13851     13854
     13846     13845     13848     13849     13846     13845     13848     13850
     13846     13845     13848     13851     13847     13845     13848     13849
     13847     13845     13848     13850     13847     13845     13848     13851
     13848     13851     13854     13855     13848     13851     13854     13856
     13848     13851     13854     13857     13849     13848     13851     13852
     13849     13848     13851     13853     13849     13848     13851     13854
     13850     13848     13851     13852     13850     13848     13851     13853
     13850     13848     13851     13854     13851     13854     13857     13858
     13851     13854     13857     13859     13851     13854     13857     13860
     13852     13851     13854     13855     13852     13851     13854     13856
     13852     13851     13854     13857     13853     13851     13854     13855
     13853     13851     13854     13856     13853     13851     13854     13857
     13854     13857     13860     13861     13854     13857     13860     13862
     13854     13857     13860     13863     13855     13854     13857     13858
     13855     13854     13857     13859     13855     13854     13857     13860
     13856     13854     13857     13858     13856     13854     13857     13859
     13856     13854     13857     13860     13857     13860     13863     13864
     13857     13860     13863     13865     13857     13860     13863     13866
     13858     13857     13860     13861     13858     13857     13860     13862
     13858     13857     13860     13863     13859     13857     13860     13861
     13859     13857     13860     13862     13859     13857     13860     13863
     13860     13863     13866     13867     13860     13863     13866     13868
     13860     13863     13866     13869     13861     13860     13863     13864
     13861     13860     13863     13865     13861     13860     13863     13866
     13862     13860     13863     13864     13862     13860     13863     13865
     13862     13860     13863     13866     13863     13866     13869     13870
     13863     13866     13869     13871     13863     13866     13869     13872
     13864     13863     13866     13867     13864     13863     13866     13868
     13864     13863     13866     13869     13865     13863     13866     13867
     13865     13863     13866     13868     13865     13863     13866     13869
     13867     13866     13869     13870     13867     13866     13869     13871
     13867     13866     13869     13872     13868     13866     13869     13870
     13868     13866     13869     13871     13868     13866     13869     13872
     13873     13877     13880     13881     13873     13877     13880     13882
     13873     13877     13880     13887     13874     13873     13877     13878
     13874     13873     13877     13879     13874     13873     13877     13880
     13875     13873     13877     13878     13875     13873     13877     13879
     13875     13873     13877     13880     13876     13873     13877     13878
     13876     13873     13877     13879     13876     13873     13877     13880
     13877     13880     13887     13883     13878     13877     13880     13881
     13878     13877     13880     13882     13878     13877     13880     13887
     13879     13877     13880     13881     13879     13877     13880     13882
     13879     13877     13880     13887     13880     13887     13883     13884
     13880     13887     13883     13885     13880     13887     13883     13886
     13881     13880     13887     13883     13882     13880     13887     13883
     13883     13886     13888     13889     13883     13886     13888     13890
     13883     13886     13888     13891     13884     13883     13886     13888
     13885     13883     13886     13888     13886     13888     13891     13892
     13886     13888     13891     13893     13886     13888     13891     13899
     13887     13883     13886     13888     13888     13891     13893     13894
     13888     13891     13899     13900     13888     13891     13899     13901
     13888     13891     13899     13902     13889     13888     13891     13892
     13889     13888     13891     13893     13889     13888     13891     13899
     13890     13888     13891     13892     13890     13888     13891     13893
     13890     13888     13891     13899     13891     13893     13894     13895
     13891     13893     13894     13896     13891     13899     13902     13903
     13892     13891     13893     13894     13892     13891     13899     13900
     13892     13891     13899     13901     13892     13891     13899     13902
     13893     13891     13899     13900     13893     13891     13899     13901
     13893     13891     13899     13902     13893     13894     13896     13897
     13893     13894     13896     13898     13893     13894     13896     13908
     13894     13893     13891     13899     13894     13896     13908     13909
     13894     13896     13908     13910     13894     13896     13908     13911
     13895     13894     13896     13897     13895     13894     13896     13898
     13895     13894     13896     13908     13896     13908     13911     13912
     13896     13908     13911     13913     13896     13908     13911     13914
     13897     13896     13908     13909     13897     13896     13908     13910
     13897     13896     13908     13911     13898     13896     13908     13909
     13898     13896     13908     13910     13898     13896     13908     13911
     13899     13902     13903     13904     13899     13902     13903     13905
     13900     13899     13902     13903     13901     13899     13902     13903
     13902     13903     13905     13906     13902     13903     13905     13907
     13902     13903     13905     13955     13903     13905     13955     13956
     13903     13905     13955     13957     13903     13905     13955     13958
     13904     13903     13905     13906     13904     13903     13905     13907
     13904     13903     13905     13955     13905     13955     13958     13959
     13905     13955     13958     13960     13905     13955     13958     13961
     13906     13905     13955     13956     13906     13905     13955     13957
     13906     13905     13955     13958     13907     13905     13955     13956
     13907     13905     13955     13957     13907     13905     13955     13958
     13908     13911     13914     13915     13908     13911     13914     13916
     13908     13911     13914     13917     13909     13908     13911     13912
     13909     13908     13911     13913     13909     13908     13911     13914
     13910     13908     13911     13912     13910     13908     13911     13913
     13910     13908     13911     13914     13911     13914     13917     13918
     13911     13914     13917     13919     13911     13914     13917     13920
     13912     13911     13914     13915     13912     13911     13914     13916
     13912     13911     13914     13917     13913     13911     13914     13915
     13913     13911     13914     13916     13913     13911     13914     13917
     13914     13917     13920     13921     13914     13917     13920     13922
     13914     13917     13920     13923     13915     13914     13917     13918
     13915     13914     13917     13919     13915     13914     13917     13920
     13916     13914     13917     13918     13916     13914     13917     13919
     13916     13914     13917     13920     13917     13920     13923     13924
     13917     13920     13923     13925     13917     13920     13923     13926
     13918     13917     13920     13921     13918     13917     13920     13922
     13918     13917     13920     13923     13919     13917     13920     13921
     13919     13917     13920     13922     13919     13917     13920     13923
     13920     13923     13926     13927     13920     13923     13926     13928
     13921     13920     13923     13924     13921     13920     13923     13925
     13921     13920     13923     13926     13922     13920     13923     13924
     13922     13920     13923     13925     13922     13920     13923     13926
     13923     13926     13928     13929     13923     13926     13928     13930
     13924     13923     13926     13927     13924     13923     13926     13928
     13925     13923     13926     13927     13925     13923     13926     13928
     13926     13928     13930     13931     13926     13928     13930     13932
     13926     13928     13930     13933     13927     13926     13928     13929
     13927     13926     13928     13930     13928     13930     13933     13934
     13928     13930     13933     13935     13928     13930     13933     13936
     13929     13928     13930     13931     13929     13928     13930     13932
     13929     13928     13930     13933     13930     13933     13936     13937
     13930     13933     13936     13938     13930     13933     13936     13939
     13931     13930     13933     13934     13931     13930     13933     13935
     13931     13930     13933     13936     13932     13930     13933     13934
     13932     13930     13933     13935     13932     13930     13933     13936
     13933     13936     13939     13940     13933     13936     13939     13941
     13933     13936     13939     13942     13934     13933     13936     13937
     13934     13933     13936     13938     13934     13933     13936     13939
     13935     13933     13936     13937     13935     13933     13936     13938
     13935     13933     13936     13939     13936     13939     13942     13943
     13936     13939     13942     13944     13936     13939     13942     13945
     13937     13936     13939     13940     13937     13936     13939     13941
     13937     13936     13939     13942     13938     13936     13939     13940
     13938     13936     13939     13941     13938     13936     13939     13942
     13939     13942     13945     13946     13939     13942     13945     13947
     13939     13942     13945     13948     13940     13939     13942     13943
     13940     13939     13942     13944     13940     13939     13942     13945
     13941     13939     13942     13943     13941     13939     13942     13944
     13941     13939     13942     13945     13942     13945     13948     13949
     13942     13945     13948     13950     13942     13945     13948     13951
     13943     13942     13945     13946     13943     13942     13945     13947
     13943     13942     13945     13948     13944     13942     13945     13946
     13944     13942     13945     13947     13944     13942     13945     13948
     13945     13948     13951     13952     13945     13948     13951     13953
     13945     13948     13951     13954     13946     13945     13948     13949
     13946     13945     13948     13950     13946     13945     13948     13951
     13947     13945     13948     13949     13947     13945     13948     13950
     13947     13945     13948     13951     13949     13948     13951     13952
     13949     13948     13951     13953     13949     13948     13951     13954
     13950     13948     13951     13952     13950     13948     13951     13953
     13950     13948     13951     13954     13955     13958     13961     13962
     13955     13958     13961     13963     13955     13958     13961     13964
     13956     13955     13958     13959     13956     13955     13958     13960
     13956     13955     13958     13961     13957     13955     13958     13959
     13957     13955     13958     13960     13957     13955     13958     13961
     13958     13961     13964     13965     13958     13961     13964     13966
     13958     13961     13964     13967     13959     13958     13961     13962
     13959     13958     13961     13963     13959     13958     13961     13964
     13960     13958     13961     13962     13960     13958     13961     13963
     13960     13958     13961     13964     13961     13964     13967     13968
     13961     13964     13967     13969     13961     13964     13967     13970
     13962     13961     13964     13965     13962     13961     13964     13966
     13962     13961     13964     13967     13963     13961     13964     13965
     13963     13961     13964     13966     13963     13961     13964     13967
     13964     13967     13970     13971     13964     13967     13970     13972
     13964     13967     13970     13973     13965     13964     13967     13968
     13965     13964     13967     13969     13965     13964     13967     13970
     13966     13964     13967     13968     13966     13964     13967     13969
     13966     13964     13967     13970     13967     13970     13973     13974
     13967     13970     13973     13975     13968     13967     13970     13971
     13968     13967     13970     13972     13968     13967     13970     13973
     13969     13967     13970     13971     13969     13967     13970     13972
     13969     13967     13970     13973     13970     13973     13975     13976
     13970     13973     13975     13977     13971     13970     13973     13974
     13971     13970     13973     13975     13972     13970     13973     13974
     13972     13970     13973     13975     13973     13975     13977     13978
     13973     13975     13977     13979     13973     13975     13977     13980
     13974     13973     13975     13976     13974     13973     13975     13977
     13975     13977     13980     13981     13975     13977     13980     13982
     13975     13977     13980     13983     13976     13975     13977     13978
     13976     13975     13977     13979     13976     13975     13977     13980
     13977     13980     13983     13984     13977     13980     13983     13985
     13977     13980     13983     13986     13978     13977     13980     13981
     13978     13977     13980     13982     13978     13977     13980     13983
     13979     13977     13980     13981     13979     13977     13980     13982
     13979     13977     13980     13983     13980     13983     13986     13987
     13980     13983     13986     13988     13980     13983     13986     13989
     13981     13980     13983     13984     13981     13980     13983     13985
     13981     13980     13983     13986     13982     13980     13983     13984
     13982     13980     13983     13985     13982     13980     13983     13986
     13983     13986     13989     13990     13983     13986     13989     13991
     13983     13986     13989     13992     13984     13983     13986     13987
     13984     13983     13986     13988     13984     13983     13986     13989
     13985     13983     13986     13987     13985     13983     13986     13988
     13985     13983     13986     13989     13986     13989     13992     13993
     13986     13989     13992     13994     13986     13989     13992     13995
     13987     13986     13989     13990     13987     13986     13989     13991
     13987     13986     13989     13992     13988     13986     13989     13990
     13988     13986     13989     13991     13988     13986     13989     13992
     13989     13992     13995     13996     13989     13992     13995     13997
     13989     13992     13995     13998     13990     13989     13992     13993
     13990     13989     13992     13994     13990     13989     13992     13995
     13991     13989     13992     13993     13991     13989     13992     13994
     13991     13989     13992     13995     13992     13995     13998     13999
     13992     13995     13998     14000     13992     13995     13998     14001
     13993     13992     13995     13996     13993     13992     13995     13997
     13993     13992     13995     13998     13994     13992     13995     13996
     13994     13992     13995     13997     13994     13992     13995     13998
     13996     13995     13998     13999     13996     13995     13998     14000
     13996     13995     13998     14001     13997     13995     13998     13999
     13997     13995     13998     14000     13997     13995     13998     14001
     14002     14006     14009     14010     14002     14006     14009     14040
     14002     14048     14045     14040     14002     14048     14045     14046
     14002     14048     14045     14047     14003     14002     14004     14005
     14003     14002     14006     14007     14003     14002     14006     14008
     14003     14002     14006     14009     14003     14002     14048     14045
     14003     14002     14048     14049     14003     14002     14048     14050
     14004     14002     14006     14007     14004     14002     14006     14008
     14004     14002     14006     14009     14004     14002     14048     14045
     14004     14002     14048     14049     14004     14002     14048     14050
     14005     14004     14002     14006     14005     14004     14002     14048
     14006     14002     14048     14045     14006     14002     14048     14049
     14006     14002     14048     14050     14006     14009     14010     14011
     14006     14009     14010     14012     14006     14009     14040     14038
     14006     14009     14040     14041     14006     14009     14040     14045
     14007     14006     14002     14048     14007     14006     14009     14010
     14007     14006     14009     14040     14008     14006     14002     14048
     14008     14006     14009     14010     14008     14006     14009     14040
     14009     14006     14002     14048     14009     14010     14012     14013
     14009     14010     14012     14014     14009     14010     14012     14015
     14009     14040     14038     14015     14009     14040     14038     14035
     14009     14040     14038     14039     14009     14040     14041     14042
     14009     14040     14041     14043     14009     14040     14041     14044
     14009     14040     14045     14046     14009     14040     14045     14047
     14009     14040     14045     14048     14010     14009     14040     14038
     14010     14009     14040     14041     14010     14009     14040     14045
     14010     14012     14015     14016     14010     14012     14015     14017
     14010     14012     14015     14038     14011     14010     14009     14040
     14011     14010     14012     14013     14011     14010     14012     14014
     14011     14010     14012     14015     14012     14010     14009     14040
     14012     14015     14017     14018     14012     14015     14017     14019
     14012     14015     14017     14027     14012     14015     14038     14035
     14012     14015     14038     14039     14012     14015     14038     14040
     14013     14012     14015     14016     14013     14012     14015     14017
     14013     14012     14015     14038     14014     14012     14015     14016
     14014     14012     14015     14017     14014     14012     14015     14038
     14015     14017     14019     14020     14015     14017     14019     14021
     14015     14017     14019     14022     14015     14017     14027     14025
     14015     14017     14027     14028     14015     14017     14027     14032
     14015     14038     14035     14032     14015     14038     14035     14036
     14015     14038     14035     14037     14015     14038     14040     14041
     14015     14038     14040     14045     14016     14015     14017     14018
     14016     14015     14017     14019     14016     14015     14017     14027
     14016     14015     14038     14035     14016     14015     14038     14039
     14016     14015     14038     14040     14017     14015     14038     14035
     14017     14015     14038     14039     14017     14015     14038     14040
     14017     14019     14022     14023     14017     14019     14022     14024
     14017     14019     14022     14025     14017     14027     14025     14022
     14017     14027     14025     14026     14017     14027     14025     14051
     14017     14027     14028     14029     14017     14027     14028     14030
     14017     14027     14028     14031     14017     14027     14032     14033
     14017     14027     14032     14034     14017     14027     14032     14035
     14018     14017     14015     14038     14018     14017     14019     14020
     14018     14017     14019     14021     14018     14017     14019     14022
     14018     14017     14027     14025     14018     14017     14027     14028
     14018     14017     14027     14032     14019     14017     14015     14038
     14019     14017     14027     14025     14019     14017     14027     14028
     14019     14017     14027     14032     14019     14022     14025     14026
     14019     14022     14025     14027     14019     14022     14025     14051
     14020     14019     14017     14027     14020     14019     14022     14023
     14020     14019     14022     14024     14020     14019     14022     14025
     14021     14019     14017     14027     14021     14019     14022     14023
     14021     14019     14022     14024     14021     14019     14022     14025
     14022     14019     14017     14027     14022     14025     14027     14028
     14022     14025     14027     14032     14022     14025     14051     14052
     14022     14025     14051     14053     14022     14025     14051     14057
     14023     14022     14025     14026     14023     14022     14025     14027
     14023     14022     14025     14051     14024     14022     14025     14026
     14024     14022     14025     14027     14024     14022     14025     14051
     14025     14027     14028     14029     14025     14027     14028     14030
     14025     14027     14028     14031     14025     14027     14032     14033
     14025     14027     14032     14034     14025     14027     14032     14035
     14025     14051     14053     14054     14025     14051     14053     14055
     14025     14051     14053     14056     14025     14051     14057     14058
     14025     14051     14057     14059     14025     14051     14057     14060
     14026     14025     14027     14028     14026     14025     14027     14032
     14026     14025     14051     14052     14026     14025     14051     14053
     14026     14025     14051     14057     14027     14017     14015     14038
     14027     14025     14051     14052     14027     14025     14051     14053
     14027     14025     14051     14057     14027     14032     14035     14036
     14027     14032     14035     14037     14027     14032     14035     14038
     14028     14027     14025     14051     14028     14027     14032     14033
     14028     14027     14032     14034     14028     14027     14032     14035
     14029     14028     14027     14032     14030     14028     14027     14032
     14031     14028     14027     14032     14032     14027     14025     14051
     14032     14035     14038     14039     14032     14035     14038     14040
     14033     14032     14035     14036     14033     14032     14035     14037
     14033     14032     14035     14038     14034     14032     14035     14036
     14034     14032     14035     14037     14034     14032     14035     14038
     14035     14038     14040     14041     14035     14038     14040     14045
     14036     14035     14038     14039     14036     14035     14038     14040
     14037     14035     14038     14039     14037     14035     14038     14040
     14038     14040     14041     14042     14038     14040     14041     14043
     14038     14040     14041     14044     14038     14040     14045     14046
     14038     14040     14045     14047     14038     14040     14045     14048
     14039     14038     14040     14041     14039     14038     14040     14045
     14040     14045     14048     14049     14040     14045     14048     14050
     14041     14040     14045     14046     14041     14040     14045     14047
     14041     14040     14045     14048     14042     14041     14040     14045
     14043     14041     14040     14045     14044     14041     14040     14045
     14046     14045     14048     14049     14046     14045     14048     14050
     14047     14045     14048     14049     14047     14045     14048     14050
     14051     14057     14060     14061     14051     14057     14060     14062
     14051     14057     14060     14063     14052     14051     14053     14054
     14052     14051     14053     14055     14052     14051     14053     14056
     14052     14051     14057     14058     14052     14051     14057     14059
     14052     14051     14057     14060     14053     14051     14057     14058
     14053     14051     14057     14059     14053     14051     14057     14060
     14054     14053     14051     14057     14055     14053     14051     14057
     14056     14053     14051     14057     14057     14060     14063     14064
     14057     14060     14063     14065     14057     14060     14063     14066
     14058     14057     14060     14061     14058     14057     14060     14062
     14058     14057     14060     14063     14059     14057     14060     14061
     14059     14057     14060     14062     14059     14057     14060     14063
     14060     14063     14066     14067     14060     14063     14066     14068
     14060     14063     14066     14072     14061     14060     14063     14064
     14061     14060     14063     14065     14061     14060     14063     14066
     14062     14060     14063     14064     14062     14060     14063     14065
     14062     14060     14063     14066     14063     14066     14068     14069
     14063     14066     14068     14070     14063     14066     14068     14071
     14063     14066     14072     14073     14063     14066     14072     14074
     14063     14066     14072     14075     14064     14063     14066     14067
     14064     14063     14066     14068     14064     14063     14066     14072
     14065     14063     14066     14067     14065     14063     14066     14068
     14065     14063     14066     14072     14067     14066     14068     14069
     14067     14066     14068     14070     14067     14066     14068     14071
     14067     14066     14072     14073     14067     14066     14072     14074
     14067     14066     14072     14075     14068     14066     14072     14073
     14068     14066     14072     14074     14068     14066     14072     14075
     14069     14068     14066     14072     14070     14068     14066     14072
     14071     14068     14066     14072     14076     14080     14083     14084
     14076     14080     14083     14085     14076     14080     14083     14090
     14077     14076     14080     14081     14077     14076     14080     14082
     14077     14076     14080     14083     14078     14076     14080     14081
     14078     14076     14080     14082     14078     14076     14080     14083
     14079     14076     14080     14081     14079     14076     14080     14082
     14079     14076     14080     14083     14080     14083     14090     14086
     14081     14080     14083     14084     14081     14080     14083     14085
     14081     14080     14083     14090     14082     14080     14083     14084
     14082     14080     14083     14085     14082     14080     14083     14090
     14083     14090     14086     14087     14083     14090     14086     14088
     14083     14090     14086     14089     14084     14083     14090     14086
     14085     14083     14090     14086     14086     14089     14091     14092
     14086     14089     14091     14093     14086     14089     14091     14094
     14087     14086     14089     14091     14088     14086     14089     14091
     14089     14091     14094     14095     14089     14091     14094     14096
     14089     14091     14094     14102     14090     14086     14089     14091
     14091     14094     14096     14097     14091     14094     14102     14103
     14091     14094     14102     14104     14091     14094     14102     14105
     14092     14091     14094     14095     14092     14091     14094     14096
     14092     14091     14094     14102     14093     14091     14094     14095
     14093     14091     14094     14096     14093     14091     14094     14102
     14094     14096     14097     14098     14094     14096     14097     14099
     14094     14102     14105     14106     14095     14094     14096     14097
     14095     14094     14102     14103     14095     14094     14102     14104
     14095     14094     14102     14105     14096     14094     14102     14103
     14096     14094     14102     14104     14096     14094     14102     14105
     14096     14097     14099     14100     14096     14097     14099     14101
     14096     14097     14099     14111     14097     14096     14094     14102
     14097     14099     14111     14112     14097     14099     14111     14113
     14097     14099     14111     14114     14098     14097     14099     14100
     14098     14097     14099     14101     14098     14097     14099     14111
     14099     14111     14114     14115     14099     14111     14114     14116
     14099     14111     14114     14117     14100     14099     14111     14112
     14100     14099     14111     14113     14100     14099     14111     14114
     14101     14099     14111     14112     14101     14099     14111     14113
     14101     14099     14111     14114     14102     14105     14106     14107
     14102     14105     14106     14108     14103     14102     14105     14106
     14104     14102     14105     14106     14105     14106     14108     14109
     14105     14106     14108     14110     14105     14106     14108     14158
     14106     14108     14158     14159     14106     14108     14158     14160
     14106     14108     14158     14161     14107     14106     14108     14109
     14107     14106     14108     14110     14107     14106     14108     14158
     14108     14158     14161     14162     14108     14158     14161     14163
     14108     14158     14161     14164     14109     14108     14158     14159
     14109     14108     14158     14160     14109     14108     14158     14161
     14110     14108     14158     14159     14110     14108     14158     14160
     14110     14108     14158     14161     14111     14114     14117     14118
     14111     14114     14117     14119     14111     14114     14117     14120
     14112     14111     14114     14115     14112     14111     14114     14116
     14112     14111     14114     14117     14113     14111     14114     14115
     14113     14111     14114     14116     14113     14111     14114     14117
     14114     14117     14120     14121     14114     14117     14120     14122
     14114     14117     14120     14123     14115     14114     14117     14118
     14115     14114     14117     14119     14115     14114     14117     14120
     14116     14114     14117     14118     14116     14114     14117     14119
     14116     14114     14117     14120     14117     14120     14123     14124
     14117     14120     14123     14125     14117     14120     14123     14126
     14118     14117     14120     14121     14118     14117     14120     14122
     14118     14117     14120     14123     14119     14117     14120     14121
     14119     14117     14120     14122     14119     14117     14120     14123
     14120     14123     14126     14127     14120     14123     14126     14128
     14120     14123     14126     14129     14121     14120     14123     14124
     14121     14120     14123     14125     14121     14120     14123     14126
     14122     14120     14123     14124     14122     14120     14123     14125
     14122     14120     14123     14126     14123     14126     14129     14130
     14123     14126     14129     14131     14124     14123     14126     14127
     14124     14123     14126     14128     14124     14123     14126     14129
     14125     14123     14126     14127     14125     14123     14126     14128
     14125     14123     14126     14129     14126     14129     14131     14132
     14126     14129     14131     14133     14127     14126     14129     14130
     14127     14126     14129     14131     14128     14126     14129     14130
     14128     14126     14129     14131     14129     14131     14133     14134
     14129     14131     14133     14135     14129     14131     14133     14136
     14130     14129     14131     14132     14130     14129     14131     14133
     14131     14133     14136     14137     14131     14133     14136     14138
     14131     14133     14136     14139     14132     14131     14133     14134
     14132     14131     14133     14135     14132     14131     14133     14136
     14133     14136     14139     14140     14133     14136     14139     14141
     14133     14136     14139     14142     14134     14133     14136     14137
     14134     14133     14136     14138     14134     14133     14136     14139
     14135     14133     14136     14137     14135     14133     14136     14138
     14135     14133     14136     14139     14136     14139     14142     14143
     14136     14139     14142     14144     14136     14139     14142     14145
     14137     14136     14139     14140     14137     14136     14139     14141
     14137     14136     14139     14142     14138     14136     14139     14140
     14138     14136     14139     14141     14138     14136     14139     14142
     14139     14142     14145     14146     14139     14142     14145     14147
     14139     14142     14145     14148     14140     14139     14142     14143
     14140     14139     14142     14144     14140     14139     14142     14145
     14141     14139     14142     14143     14141     14139     14142     14144
     14141     14139     14142     14145     14142     14145     14148     14149
     14142     14145     14148     14150     14142     14145     14148     14151
     14143     14142     14145     14146     14143     14142     14145     14147
     14143     14142     14145     14148     14144     14142     14145     14146
     14144     14142     14145     14147     14144     14142     14145     14148
     14145     14148     14151     14152     14145     14148     14151     14153
     14145     14148     14151     14154     14146     14145     14148     14149
     14146     14145     14148     14150     14146     14145     14148     14151
     14147     14145     14148     14149     14147     14145     14148     14150
     14147     14145     14148     14151     14148     14151     14154     14155
     14148     14151     14154     14156     14148     14151     14154     14157
     14149     14148     14151     14152     14149     14148     14151     14153
     14149     14148     14151     14154     14150     14148     14151     14152
     14150     14148     14151     14153     14150     14148     14151     14154
     14152     14151     14154     14155     14152     14151     14154     14156
     14152     14151     14154     14157     14153     14151     14154     14155
     14153     14151     14154     14156     14153     14151     14154     14157
     14158     14161     14164     14165     14158     14161     14164     14166
     14158     14161     14164     14167     14159     14158     14161     14162
     14159     14158     14161     14163     14159     14158     14161     14164
     14160     14158     14161     14162     14160     14158     14161     14163
     14160     14158     14161     14164     14161     14164     14167     14168
     14161     14164     14167     14169     14161     14164     14167     14170
     14162     14161     14164     14165     14162     14161     14164     14166
     14162     14161     14164     14167     14163     14161     14164     14165
     14163     14161     14164     14166     14163     14161     14164     14167
     14164     14167     14170     14171     14164     14167     14170     14172
     14164     14167     14170     14173     14165     14164     14167     14168
     14165     14164     14167     14169     14165     14164     14167     14170
     14166     14164     14167     14168     14166     14164     14167     14169
     14166     14164     14167     14170     14167     14170     14173     14174
     14167     14170     14173     14175     14167     14170     14173     14176
     14168     14167     14170     14171     14168     14167     14170     14172
     14168     14167     14170     14173     14169     14167     14170     14171
     14169     14167     14170     14172     14169     14167     14170     14173
     14170     14173     14176     14177     14170     14173     14176     14178
     14171     14170     14173     14174     14171     14170     14173     14175
     14171     14170     14173     14176     14172     14170     14173     14174
     14172     14170     14173     14175     14172     14170     14173     14176
     14173     14176     14178     14179     14173     14176     14178     14180
     14174     14173     14176     14177     14174     14173     14176     14178
     14175     14173     14176     14177     14175     14173     14176     14178
     14176     14178     14180     14181     14176     14178     14180     14182
     14176     14178     14180     14183     14177     14176     14178     14179
     14177     14176     14178     14180     14178     14180     14183     14184
     14178     14180     14183     14185     14178     14180     14183     14186
     14179     14178     14180     14181     14179     14178     14180     14182
     14179     14178     14180     14183     14180     14183     14186     14187
     14180     14183     14186     14188     14180     14183     14186     14189
     14181     14180     14183     14184     14181     14180     14183     14185
     14181     14180     14183     14186     14182     14180     14183     14184
     14182     14180     14183     14185     14182     14180     14183     14186
     14183     14186     14189     14190     14183     14186     14189     14191
     14183     14186     14189     14192     14184     14183     14186     14187
     14184     14183     14186     14188     14184     14183     14186     14189
     14185     14183     14186     14187     14185     14183     14186     14188
     14185     14183     14186     14189     14186     14189     14192     14193
     14186     14189     14192     14194     14186     14189     14192     14195
     14187     14186     14189     14190     14187     14186     14189     14191
     14187     14186     14189     14192     14188     14186     14189     14190
     14188     14186     14189     14191     14188     14186     14189     14192
     14189     14192     14195     14196     14189     14192     14195     14197
     14189     14192     14195     14198     14190     14189     14192     14193
     14190     14189     14192     14194     14190     14189     14192     14195
     14191     14189     14192     14193     14191     14189     14192     14194
     14191     14189     14192     14195     14192     14195     14198     14199
     14192     14195     14198     14200     14192     14195     14198     14201
     14193     14192     14195     14196     14193     14192     14195     14197
     14193     14192     14195     14198     14194     14192     14195     14196
     14194     14192     14195     14197     14194     14192     14195     14198
     14195     14198     14201     14202     14195     14198     14201     14203
     14195     14198     14201     14204     14196     14195     14198     14199
     14196     14195     14198     14200     14196     14195     14198     14201
     14197     14195     14198     14199     14197     14195     14198     14200
     14197     14195     14198     14201     14199     14198     14201     14202
     14199     14198     14201     14203     14199     14198     14201     14204
     14200     14198     14201     14202     14200     14198     14201     14203
     14200     14198     14201     14204     14205     14209     14212     14213
     14205     14209     14212     14243     14205     14251     14248     14243
     14205     14251     14248     14249     14205     14251     14248     14250
     14206     14205     14207     14208     14206     14205     14209     14210
     14206     14205     14209     14211     14206     14205     14209     14212
     14206     14205     14251     14248     14206     14205     14251     14252
     14206     14205     14251     14253     14207     14205     14209     14210
     14207     14205     14209     14211     14207     14205     14209     14212
     14207     14205     14251     14248     14207     14205     14251     14252
     14207     14205     14251     14253     14208     14207     14205     14209
     14208     14207     14205     14251     14209     14205     14251     14248
     14209     14205     14251     14252     14209     14205     14251     14253
     14209     14212     14213     14214     14209     14212     14213     14215
     14209     14212     14243     14241     14209     14212     14243     14244
     14209     14212     14243     14248     14210     14209     14205     14251
     14210     14209     14212     14213     14210     14209     14212     14243
     14211     14209     14205     14251     14211     14209     14212     14213
     14211     14209     14212     14243     14212     14209     14205     14251
     14212     14213     14215     14216     14212     14213     14215     14217
     14212     14213     14215     14218     14212     14243     14241     14218
     14212     14243     14241     14238     14212     14243     14241     14242
     14212     14243     14244     14245     14212     14243     14244     14246
     14212     14243     14244     14247     14212     14243     14248     14249
     14212     14243     14248     14250     14212     14243     14248     14251
     14213     14212     14243     14241     14213     14212     14243     14244
     14213     14212     14243     14248     14213     14215     14218     14219
     14213     14215     14218     14220     14213     14215     14218     14241
     14214     14213     14212     14243     14214     14213     14215     14216
     14214     14213     14215     14217     14214     14213     14215     14218
     14215     14213     14212     14243     14215     14218     14220     14221
     14215     14218     14220     14222     14215     14218     14220     14230
     14215     14218     14241     14238     14215     14218     14241     14242
     14215     14218     14241     14243     14216     14215     14218     14219
     14216     14215     14218     14220     14216     14215     14218     14241
     14217     14215     14218     14219     14217     14215     14218     14220
     14217     14215     14218     14241     14218     14220     14222     14223
     14218     14220     14222     14224     14218     14220     14222     14225
     14218     14220     14230     14228     14218     14220     14230     14231
     14218     14220     14230     14235     14218     14241     14238     14235
     14218     14241     14238     14239     14218     14241     14238     14240
     14218     14241     14243     14244     14218     14241     14243     14248
     14219     14218     14220     14221     14219     14218     14220     14222
     14219     14218     14220     14230     14219     14218     14241     14238
     14219     14218     14241     14242     14219     14218     14241     14243
     14220     14218     14241     14238     14220     14218     14241     14242
     14220     14218     14241     14243     14220     14222     14225     14226
     14220     14222     14225     14227     14220     14222     14225     14228
     14220     14230     14228     14225     14220     14230     14228     14229
     14220     14230     14228     14254     14220     14230     14231     14232
     14220     14230     14231     14233     14220     14230     14231     14234
     14220     14230     14235     14236     14220     14230     14235     14237
     14220     14230     14235     14238     14221     14220     14218     14241
     14221     14220     14222     14223     14221     14220     14222     14224
     14221     14220     14222     14225     14221     14220     14230     14228
     14221     14220     14230     14231     14221     14220     14230     14235
     14222     14220     14218     14241     14222     14220     14230     14228
     14222     14220     14230     14231     14222     14220     14230     14235
     14222     14225     14228     14229     14222     14225     14228     14230
     14222     14225     14228     14254     14223     14222     14220     14230
     14223     14222     14225     14226     14223     14222     14225     14227
     14223     14222     14225     14228     14224     14222     14220     14230
     14224     14222     14225     14226     14224     14222     14225     14227
     14224     14222     14225     14228     14225     14222     14220     14230
     14225     14228     14230     14231     14225     14228     14230     14235
     14225     14228     14254     14255     14225     14228     14254     14256
     14225     14228     14254     14260     14226     14225     14228     14229
     14226     14225     14228     14230     14226     14225     14228     14254
     14227     14225     14228     14229     14227     14225     14228     14230
     14227     14225     14228     14254     14228     14230     14231     14232
     14228     14230     14231     14233     14228     14230     14231     14234
     14228     14230     14235     14236     14228     14230     14235     14237
     14228     14230     14235     14238     14228     14254     14256     14257
     14228     14254     14256     14258     14228     14254     14256     14259
     14228     14254     14260     14261     14228     14254     14260     14262
     14228     14254     14260     14263     14229     14228     14230     14231
     14229     14228     14230     14235     14229     14228     14254     14255
     14229     14228     14254     14256     14229     14228     14254     14260
     14230     14220     14218     14241     14230     14228     14254     14255
     14230     14228     14254     14256     14230     14228     14254     14260
     14230     14235     14238     14239     14230     14235     14238     14240
     14230     14235     14238     14241     14231     14230     14228     14254
     14231     14230     14235     14236     14231     14230     14235     14237
     14231     14230     14235     14238     14232     14231     14230     14235
     14233     14231     14230     14235     14234     14231     14230     14235
     14235     14230     14228     14254     14235     14238     14241     14242
     14235     14238     14241     14243     14236     14235     14238     14239
     14236     14235     14238     14240     14236     14235     14238     14241
     14237     14235     14238     14239     14237     14235     14238     14240
     14237     14235     14238     14241     14238     14241     14243     14244
     14238     14241     14243     14248     14239     14238     14241     14242
     14239     14238     14241     14243     14240     14238     14241     14242
     14240     14238     14241     14243     14241     14243     14244     14245
     14241     14243     14244     14246     14241     14243     14244     14247
     14241     14243     14248     14249     14241     14243     14248     14250
     14241     14243     14248     14251     14242     14241     14243     14244
     14242     14241     14243     14248     14243     14248     14251     14252
     14243     14248     14251     14253     14244     14243     14248     14249
     14244     14243     14248     14250     14244     14243     14248     14251
     14245     14244     14243     14248     14246     14244     14243     14248
     14247     14244     14243     14248     14249     14248     14251     14252
     14249     14248     14251     14253     14250     14248     14251     14252
     14250     14248     14251     14253     14254     14260     14263     14264
     14254     14260     14263     14265     14254     14260     14263     14266
     14255     14254     14256     14257     14255     14254     14256     14258
     14255     14254     14256     14259     14255     14254     14260     14261
     14255     14254     14260     14262     14255     14254     14260     14263
     14256     14254     14260     14261     14256     14254     14260     14262
     14256     14254     14260     14263     14257     14256     14254     14260
     14258     14256     14254     14260     14259     14256     14254     14260
     14260     14263     14266     14267     14260     14263     14266     14268
     14260     14263     14266     14269     14261     14260     14263     14264
     14261     14260     14263     14265     14261     14260     14263     14266
     14262     14260     14263     14264     14262     14260     14263     14265
     14262     14260     14263     14266     14263     14266     14269     14270
     14263     14266     14269     14271     14263     14266     14269     14275
     14264     14263     14266     14267     14264     14263     14266     14268
     14264     14263     14266     14269     14265     14263     14266     14267
     14265     14263     14266     14268     14265     14263     14266     14269
     14266     14269     14271     14272     14266     14269     14271     14273
     14266     14269     14271     14274     14266     14269     14275     14276
     14266     14269     14275     14277     14266     14269     14275     14278
     14267     14266     14269     14270     14267     14266     14269     14271
     14267     14266     14269     14275     14268     14266     14269     14270
     14268     14266     14269     14271     14268     14266     14269     14275
     14270     14269     14271     14272     14270     14269     14271     14273
     14270     14269     14271     14274     14270     14269     14275     14276
     14270     14269     14275     14277     14270     14269     14275     14278
     14271     14269     14275     14276     14271     14269     14275     14277
     14271     14269     14275     14278     14272     14271     14269     14275
     14273     14271     14269     14275     14274     14271     14269     14275
     14279     14283     14286     14287     14279     14283     14286     14288
     14279     14283     14286     14293     14280     14279     14283     14284
     14280     14279     14283     14285     14280     14279     14283     14286
     14281     14279     14283     14284     14281     14279     14283     14285
     14281     14279     14283     14286     14282     14279     14283     14284
     14282     14279     14283     14285     14282     14279     14283     14286
     14283     14286     14293     14289     14284     14283     14286     14287
     14284     14283     14286     14288     14284     14283     14286     14293
     14285     14283     14286     14287     14285     14283     14286     14288
     14285     14283     14286     14293     14286     14293     14289     14290
     14286     14293     14289     14291     14286     14293     14289     14292
     14287     14286     14293     14289     14288     14286     14293     14289
     14289     14292     14294     14295     14289     14292     14294     14296
     14289     14292     14294     14297     14290     14289     14292     14294
     14291     14289     14292     14294     14292     14294     14297     14298
     14292     14294     14297     14299     14292     14294     14297     14305
     14293     14289     14292     14294     14294     14297     14299     14300
     14294     14297     14305     14306     14294     14297     14305     14307
     14294     14297     14305     14308     14295     14294     14297     14298
     14295     14294     14297     14299     14295     14294     14297     14305
     14296     14294     14297     14298     14296     14294     14297     14299
     14296     14294     14297     14305     14297     14299     14300     14301
     14297     14299     14300     14302     14297     14305     14308     14309
     14298     14297     14299     14300     14298     14297     14305     14306
     14298     14297     14305     14307     14298     14297     14305     14308
     14299     14297     14305     14306     14299     14297     14305     14307
     14299     14297     14305     14308     14299     14300     14302     14303
     14299     14300     14302     14304     14299     14300     14302     14314
     14300     14299     14297     14305     14300     14302     14314     14315
     14300     14302     14314     14316     14300     14302     14314     14317
     14301     14300     14302     14303     14301     14300     14302     14304
     14301     14300     14302     14314     14302     14314     14317     14318
     14302     14314     14317     14319     14302     14314     14317     14320
     14303     14302     14314     14315     14303     14302     14314     14316
     14303     14302     14314     14317     14304     14302     14314     14315
     14304     14302     14314     14316     14304     14302     14314     14317
     14305     14308     14309     14310     14305     14308     14309     14311
     14306     14305     14308     14309     14307     14305     14308     14309
     14308     14309     14311     14312     14308     14309     14311     14313
     14308     14309     14311     14361     14309     14311     14361     14362
     14309     14311     14361     14363     14309     14311     14361     14364
     14310     14309     14311     14312     14310     14309     14311     14313
     14310     14309     14311     14361     14311     14361     14364     14365
     14311     14361     14364     14366     14311     14361     14364     14367
     14312     14311     14361     14362     14312     14311     14361     14363
     14312     14311     14361     14364     14313     14311     14361     14362
     14313     14311     14361     14363     14313     14311     14361     14364
     14314     14317     14320     14321     14314     14317     14320     14322
     14314     14317     14320     14323     14315     14314     14317     14318
     14315     14314     14317     14319     14315     14314     14317     14320
     14316     14314     14317     14318     14316     14314     14317     14319
     14316     14314     14317     14320     14317     14320     14323     14324
     14317     14320     14323     14325     14317     14320     14323     14326
     14318     14317     14320     14321     14318     14317     14320     14322
     14318     14317     14320     14323     14319     14317     14320     14321
     14319     14317     14320     14322     14319     14317     14320     14323
     14320     14323     14326     14327     14320     14323     14326     14328
     14320     14323     14326     14329     14321     14320     14323     14324
     14321     14320     14323     14325     14321     14320     14323     14326
     14322     14320     14323     14324     14322     14320     14323     14325
     14322     14320     14323     14326     14323     14326     14329     14330
     14323     14326     14329     14331     14323     14326     14329     14332
     14324     14323     14326     14327     14324     14323     14326     14328
     14324     14323     14326     14329     14325     14323     14326     14327
     14325     14323     14326     14328     14325     14323     14326     14329
     14326     14329     14332     14333     14326     14329     14332     14334
     14327     14326     14329     14330     14327     14326     14329     14331
     14327     14326     14329     14332     14328     14326     14329     14330
     14328     14326     14329     14331     14328     14326     14329     14332
     14329     14332     14334     14335     14329     14332     14334     14336
     14330     14329     14332     14333     14330     14329     14332     14334
     14331     14329     14332     14333     14331     14329     14332     14334
     14332     14334     14336     14337     14332     14334     14336     14338
     14332     14334     14336     14339     14333     14332     14334     14335
     14333     14332     14334     14336     14334     14336     14339     14340
     14334     14336     14339     14341     14334     14336     14339     14342
     14335     14334     14336     14337     14335     14334     14336     14338
     14335     14334     14336     14339     14336     14339     14342     14343
     14336     14339     14342     14344     14336     14339     14342     14345
     14337     14336     14339     14340     14337     14336     14339     14341
     14337     14336     14339     14342     14338     14336     14339     14340
     14338     14336     14339     14341     14338     14336     14339     14342
     14339     14342     14345     14346     14339     14342     14345     14347
     14339     14342     14345     14348     14340     14339     14342     14343
     14340     14339     14342     14344     14340     14339     14342     14345
     14341     14339     14342     14343     14341     14339     14342     14344
     14341     14339     14342     14345     14342     14345     14348     14349
     14342     14345     14348     14350     14342     14345     14348     14351
     14343     14342     14345     14346     14343     14342     14345     14347
     14343     14342     14345     14348     14344     14342     14345     14346
     14344     14342     14345     14347     14344     14342     14345     14348
     14345     14348     14351     14352     14345     14348     14351     14353
     14345     14348     14351     14354     14346     14345     14348     14349
     14346     14345     14348     14350     14346     14345     14348     14351
     14347     14345     14348     14349     14347     14345     14348     14350
     14347     14345     14348     14351     14348     14351     14354     14355
     14348     14351     14354     14356     14348     14351     14354     14357
     14349     14348     14351     14352     14349     14348     14351     14353
     14349     14348     14351     14354     14350     14348     14351     14352
     14350     14348     14351     14353     14350     14348     14351     14354
     14351     14354     14357     14358     14351     14354     14357     14359
     14351     14354     14357     14360     14352     14351     14354     14355
     14352     14351     14354     14356     14352     14351     14354     14357
     14353     14351     14354     14355     14353     14351     14354     14356
     14353     14351     14354     14357     14355     14354     14357     14358
     14355     14354     14357     14359     14355     14354     14357     14360
     14356     14354     14357     14358     14356     14354     14357     14359
     14356     14354     14357     14360     14361     14364     14367     14368
     14361     14364     14367     14369     14361     14364     14367     14370
     14362     14361     14364     14365     14362     14361     14364     14366
     14362     14361     14364     14367     14363     14361     14364     14365
     14363     14361     14364     14366     14363     14361     14364     14367
     14364     14367     14370     14371     14364     14367     14370     14372
     14364     14367     14370     14373     14365     14364     14367     14368
     14365     14364     14367     14369     14365     14364     14367     14370
     14366     14364     14367     14368     14366     14364     14367     14369
     14366     14364     14367     14370     14367     14370     14373     14374
     14367     14370     14373     14375     14367     14370     14373     14376
     14368     14367     14370     14371     14368     14367     14370     14372
     14368     14367     14370     14373     14369     14367     14370     14371
     14369     14367     14370     14372     14369     14367     14370     14373
     14370     14373     14376     14377     14370     14373     14376     14378
     14370     14373     14376     14379     14371     14370     14373     14374
     14371     14370     14373     14375     14371     14370     14373     14376
     14372     14370     14373     14374     14372     14370     14373     14375
     14372     14370     14373     14376     14373     14376     14379     14380
     14373     14376     14379     14381     14374     14373     14376     14377
     14374     14373     14376     14378     14374     14373     14376     14379
     14375     14373     14376     14377     14375     14373     14376     14378
     14375     14373     14376     14379     14376     14379     14381     14382
     14376     14379     14381     14383     14377     14376     14379     14380
     14377     14376     14379     14381     14378     14376     14379     14380
     14378     14376     14379     14381     14379     14381     14383     14384
     14379     14381     14383     14385     14379     14381     14383     14386
     14380     14379     14381     14382     14380     14379     14381     14383
     14381     14383     14386     14387     14381     14383     14386     14388
     14381     14383     14386     14389     14382     14381     14383     14384
     14382     14381     14383     14385     14382     14381     14383     14386
     14383     14386     14389     14390     14383     14386     14389     14391
     14383     14386     14389     14392     14384     14383     14386     14387
     14384     14383     14386     14388     14384     14383     14386     14389
     14385     14383     14386     14387     14385     14383     14386     14388
     14385     14383     14386     14389     14386     14389     14392     14393
     14386     14389     14392     14394     14386     14389     14392     14395
     14387     14386     14389     14390     14387     14386     14389     14391
     14387     14386     14389     14392     14388     14386     14389     14390
     14388     14386     14389     14391     14388     14386     14389     14392
     14389     14392     14395     14396     14389     14392     14395     14397
     14389     14392     14395     14398     14390     14389     14392     14393
     14390     14389     14392     14394     14390     14389     14392     14395
     14391     14389     14392     14393     14391     14389     14392     14394
     14391     14389     14392     14395     14392     14395     14398     14399
     14392     14395     14398     14400     14392     14395     14398     14401
     14393     14392     14395     14396     14393     14392     14395     14397
     14393     14392     14395     14398     14394     14392     14395     14396
     14394     14392     14395     14397     14394     14392     14395     14398
     14395     14398     14401     14402     14395     14398     14401     14403
     14395     14398     14401     14404     14396     14395     14398     14399
     14396     14395     14398     14400     14396     14395     14398     14401
     14397     14395     14398     14399     14397     14395     14398     14400
     14397     14395     14398     14401     14398     14401     14404     14405
     14398     14401     14404     14406     14398     14401     14404     14407
     14399     14398     14401     14402     14399     14398     14401     14403
     14399     14398     14401     14404     14400     14398     14401     14402
     14400     14398     14401     14403     14400     14398     14401     14404
     14402     14401     14404     14405     14402     14401     14404     14406
     14402     14401     14404     14407     14403     14401     14404     14405
     14403     14401     14404     14406     14403     14401     14404     14407
     14408     14409     14424     14425     14408     14409     14424     14426
     14408     14409     14424     14430     14409     14408     14412     14413
     14409     14408     14412     14414     14409     14408     14412     14415
     14409     14408     14416     14417     14409     14408     14416     14418
     14409     14408     14416     14419     14409     14408     14420     14421
     14409     14408     14420     14422     14409     14408     14420     14423
     14409     14424     14430     14427     14410     14409     14408     14412
     14410     14409     14408     14416     14410     14409     14408     14420
     14410     14409     14424     14425     14410     14409     14424     14426
     14410     14409     14424     14430     14411     14409     14408     14412
     14411     14409     14408     14416     14411     14409     14408     14420
     14411     14409     14424     14425     14411     14409     14424     14426
     14411     14409     14424     14430     14412     14408     14409     14424
     14412     14408     14416     14417     14412     14408     14416     14418
     14412     14408     14416     14419     14412     14408     14420     14421
     14412     14408     14420     14422     14412     14408     14420     14423
     14413     14412     14408     14416     14413     14412     14408     14420
     14414     14412     14408     14416     14414     14412     14408     14420
     14415     14412     14408     14416     14415     14412     14408     14420
     14416     14408     14409     14424     14416     14408     14420     14421
     14416     14408     14420     14422     14416     14408     14420     14423
     14417     14416     14408     14420     14418     14416     14408     14420
     14419     14416     14408     14420     14420     14408     14409     14424
     14424     14430     14427     14428     14424     14430     14427     14429
     14424     14430     14427     14431     14425     14424     14430     14427
     14426     14424     14430     14427     14427     14431     14432     14433
     14427     14431     14432     14434     14427     14431     14432     14435
     14428     14427     14431     14432     14429     14427     14431     14432
     14430     14427     14431     14432     14431     14432     14435     14436
     14431     14432     14435     14437     14431     14432     14435     14443
     14432     14435     14437     14438     14432     14435     14443     14444
     14432     14435     14443     14445     14432     14435     14443     14446
     14433     14432     14435     14436     14433     14432     14435     14437
     14433     14432     14435     14443     14434     14432     14435     14436
     14434     14432     14435     14437     14434     14432     14435     14443
     14435     14437     14438     14439     14435     14437     14438     14440
     14435     14443     14446     14447     14436     14435     14437     14438
     14436     14435     14443     14444     14436     14435     14443     14445
     14436     14435     14443     14446     14437     14435     14443     14444
     14437     14435     14443     14445     14437     14435     14443     14446
     14437     14438     14440     14441     14437     14438     14440     14442
     14437     14438     14440     14452     14438     14437     14435     14443
     14438     14440     14452     14453     14438     14440     14452     14454
     14438     14440     14452     14455     14439     14438     14440     14441
     14439     14438     14440     14442     14439     14438     14440     14452
     14440     14452     14455     14456     14440     14452     14455     14457
     14440     14452     14455     14458     14441     14440     14452     14453
     14441     14440     14452     14454     14441     14440     14452     14455
     14442     14440     14452     14453     14442     14440     14452     14454
     14442     14440     14452     14455     14443     14446     14447     14448
     14443     14446     14447     14449     14444     14443     14446     14447
     14445     14443     14446     14447     14446     14447     14449     14450
     14446     14447     14449     14451     14446     14447     14449     14499
     14447     14449     14499     14500     14447     14449     14499     14501
     14447     14449     14499     14502     14448     14447     14449     14450
     14448     14447     14449     14451     14448     14447     14449     14499
     14449     14499     14502     14503     14449     14499     14502     14504
     14449     14499     14502     14505     14450     14449     14499     14500
     14450     14449     14499     14501     14450     14449     14499     14502
     14451     14449     14499     14500     14451     14449     14499     14501
     14451     14449     14499     14502     14452     14455     14458     14459
     14452     14455     14458     14460     14452     14455     14458     14461
     14453     14452     14455     14456     14453     14452     14455     14457
     14453     14452     14455     14458     14454     14452     14455     14456
     14454     14452     14455     14457     14454     14452     14455     14458
     14455     14458     14461     14462     14455     14458     14461     14463
     14455     14458     14461     14464     14456     14455     14458     14459
     14456     14455     14458     14460     14456     14455     14458     14461
     14457     14455     14458     14459     14457     14455     14458     14460
     14457     14455     14458     14461     14458     14461     14464     14465
     14458     14461     14464     14466     14458     14461     14464     14467
     14459     14458     14461     14462     14459     14458     14461     14463
     14459     14458     14461     14464     14460     14458     14461     14462
     14460     14458     14461     14463     14460     14458     14461     14464
     14461     14464     14467     14468     14461     14464     14467     14469
     14461     14464     14467     14470     14462     14461     14464     14465
     14462     14461     14464     14466     14462     14461     14464     14467
     14463     14461     14464     14465     14463     14461     14464     14466
     14463     14461     14464     14467     14464     14467     14470     14471
     14464     14467     14470     14472     14465     14464     14467     14468
     14465     14464     14467     14469     14465     14464     14467     14470
     14466     14464     14467     14468     14466     14464     14467     14469
     14466     14464     14467     14470     14467     14470     14472     14473
     14467     14470     14472     14474     14468     14467     14470     14471
     14468     14467     14470     14472     14469     14467     14470     14471
     14469     14467     14470     14472     14470     14472     14474     14475
     14470     14472     14474     14476     14470     14472     14474     14477
     14471     14470     14472     14473     14471     14470     14472     14474
     14472     14474     14477     14478     14472     14474     14477     14479
     14472     14474     14477     14480     14473     14472     14474     14475
     14473     14472     14474     14476     14473     14472     14474     14477
     14474     14477     14480     14481     14474     14477     14480     14482
     14474     14477     14480     14483     14475     14474     14477     14478
     14475     14474     14477     14479     14475     14474     14477     14480
     14476     14474     14477     14478     14476     14474     14477     14479
     14476     14474     14477     14480     14477     14480     14483     14484
     14477     14480     14483     14485     14477     14480     14483     14486
     14478     14477     14480     14481     14478     14477     14480     14482
     14478     14477     14480     14483     14479     14477     14480     14481
     14479     14477     14480     14482     14479     14477     14480     14483
     14480     14483     14486     14487     14480     14483     14486     14488
     14480     14483     14486     14489     14481     14480     14483     14484
     14481     14480     14483     14485     14481     14480     14483     14486
     14482     14480     14483     14484     14482     14480     14483     14485
     14482     14480     14483     14486     14483     14486     14489     14490
     14483     14486     14489     14491     14483     14486     14489     14492
     14484     14483     14486     14487     14484     14483     14486     14488
     14484     14483     14486     14489     14485     14483     14486     14487
     14485     14483     14486     14488     14485     14483     14486     14489
     14486     14489     14492     14493     14486     14489     14492     14494
     14486     14489     14492     14495     14487     14486     14489     14490
     14487     14486     14489     14491     14487     14486     14489     14492
     14488     14486     14489     14490     14488     14486     14489     14491
     14488     14486     14489     14492     14489     14492     14495     14496
     14489     14492     14495     14497     14489     14492     14495     14498
     14490     14489     14492     14493     14490     14489     14492     14494
     14490     14489     14492     14495     14491     14489     14492     14493
     14491     14489     14492     14494     14491     14489     14492     14495
     14493     14492     14495     14496     14493     14492     14495     14497
     14493     14492     14495     14498     14494     14492     14495     14496
     14494     14492     14495     14497     14494     14492     14495     14498
     14499     14502     14505     14506     14499     14502     14505     14507
     14499     14502     14505     14508     14500     14499     14502     14503
     14500     14499     14502     14504     14500     14499     14502     14505
     14501     14499     14502     14503     14501     14499     14502     14504
     14501     14499     14502     14505     14502     14505     14508     14509
     14502     14505     14508     14510     14502     14505     14508     14511
     14503     14502     14505     14506     14503     14502     14505     14507
     14503     14502     14505     14508     14504     14502     14505     14506
     14504     14502     14505     14507     14504     14502     14505     14508
     14505     14508     14511     14512     14505     14508     14511     14513
     14505     14508     14511     14514     14506     14505     14508     14509
     14506     14505     14508     14510     14506     14505     14508     14511
     14507     14505     14508     14509     14507     14505     14508     14510
     14507     14505     14508     14511     14508     14511     14514     14515
     14508     14511     14514     14516     14508     14511     14514     14517
     14509     14508     14511     14512     14509     14508     14511     14513
     14509     14508     14511     14514     14510     14508     14511     14512
     14510     14508     14511     14513     14510     14508     14511     14514
     14511     14514     14517     14518     14511     14514     14517     14519
     14512     14511     14514     14515     14512     14511     14514     14516
     14512     14511     14514     14517     14513     14511     14514     14515
     14513     14511     14514     14516     14513     14511     14514     14517
     14514     14517     14519     14520     14514     14517     14519     14521
     14515     14514     14517     14518     14515     14514     14517     14519
     14516     14514     14517     14518     14516     14514     14517     14519
     14517     14519     14521     14522     14517     14519     14521     14523
     14517     14519     14521     14524     14518     14517     14519     14520
     14518     14517     14519     14521     14519     14521     14524     14525
     14519     14521     14524     14526     14519     14521     14524     14527
     14520     14519     14521     14522     14520     14519     14521     14523
     14520     14519     14521     14524     14521     14524     14527     14528
     14521     14524     14527     14529     14521     14524     14527     14530
     14522     14521     14524     14525     14522     14521     14524     14526
     14522     14521     14524     14527     14523     14521     14524     14525
     14523     14521     14524     14526     14523     14521     14524     14527
     14524     14527     14530     14531     14524     14527     14530     14532
     14524     14527     14530     14533     14525     14524     14527     14528
     14525     14524     14527     14529     14525     14524     14527     14530
     14526     14524     14527     14528     14526     14524     14527     14529
     14526     14524     14527     14530     14527     14530     14533     14534
     14527     14530     14533     14535     14527     14530     14533     14536
     14528     14527     14530     14531     14528     14527     14530     14532
     14528     14527     14530     14533     14529     14527     14530     14531
     14529     14527     14530     14532     14529     14527     14530     14533
     14530     14533     14536     14537     14530     14533     14536     14538
     14530     14533     14536     14539     14531     14530     14533     14534
     14531     14530     14533     14535     14531     14530     14533     14536
     14532     14530     14533     14534     14532     14530     14533     14535
     14532     14530     14533     14536     14533     14536     14539     14540
     14533     14536     14539     14541     14533     14536     14539     14542
     14534     14533     14536     14537     14534     14533     14536     14538
     14534     14533     14536     14539     14535     14533     14536     14537
     14535     14533     14536     14538     14535     14533     14536     14539
     14536     14539     14542     14543     14536     14539     14542     14544
     14536     14539     14542     14545     14537     14536     14539     14540
     14537     14536     14539     14541     14537     14536     14539     14542
     14538     14536     14539     14540     14538     14536     14539     14541
     14538     14536     14539     14542     14540     14539     14542     14543
     14540     14539     14542     14544     14540     14539     14542     14545
     14541     14539     14542     14543     14541     14539     14542     14544
     14541     14539     14542     14545     14546     14550     14553     14554
     14546     14550     14553     14555     14546     14550     14553     14560
     14547     14546     14550     14551     14547     14546     14550     14552
     14547     14546     14550     14553     14548     14546     14550     14551
     14548     14546     14550     14552     14548     14546     14550     14553
     14549     14546     14550     14551     14549     14546     14550     14552
     14549     14546     14550     14553     14550     14553     14560     14556
     14551     14550     14553     14554     14551     14550     14553     14555
     14551     14550     14553     14560     14552     14550     14553     14554
     14552     14550     14553     14555     14552     14550     14553     14560
     14553     14560     14556     14557     14553     14560     14556     14558
     14553     14560     14556     14559     14554     14553     14560     14556
     14555     14553     14560     14556     14556     14559     14561     14562
     14556     14559     14561     14563     14556     14559     14561     14564
     14557     14556     14559     14561     14558     14556     14559     14561
     14559     14561     14564     14565     14559     14561     14564     14566
     14559     14561     14564     14572     14560     14556     14559     14561
     14561     14564     14566     14567     14561     14564     14572     14573
     14561     14564     14572     14574     14561     14564     14572     14575
     14562     14561     14564     14565     14562     14561     14564     14566
     14562     14561     14564     14572     14563     14561     14564     14565
     14563     14561     14564     14566     14563     14561     14564     14572
     14564     14566     14567     14568     14564     14566     14567     14569
     14564     14572     14575     14576     14565     14564     14566     14567
     14565     14564     14572     14573     14565     14564     14572     14574
     14565     14564     14572     14575     14566     14564     14572     14573
     14566     14564     14572     14574     14566     14564     14572     14575
     14566     14567     14569     14570     14566     14567     14569     14571
     14566     14567     14569     14581     14567     14566     14564     14572
     14567     14569     14581     14582     14567     14569     14581     14583
     14567     14569     14581     14584     14568     14567     14569     14570
     14568     14567     14569     14571     14568     14567     14569     14581
     14569     14581     14584     14585     14569     14581     14584     14586
     14569     14581     14584     14587     14570     14569     14581     14582
     14570     14569     14581     14583     14570     14569     14581     14584
     14571     14569     14581     14582     14571     14569     14581     14583
     14571     14569     14581     14584     14572     14575     14576     14577
     14572     14575     14576     14578     14573     14572     14575     14576
     14574     14572     14575     14576     14575     14576     14578     14579
     14575     14576     14578     14580     14575     14576     14578     14628
     14576     14578     14628     14629     14576     14578     14628     14630
     14576     14578     14628     14631     14577     14576     14578     14579
     14577     14576     14578     14580     14577     14576     14578     14628
     14578     14628     14631     14632     14578     14628     14631     14633
     14578     14628     14631     14634     14579     14578     14628     14629
     14579     14578     14628     14630     14579     14578     14628     14631
     14580     14578     14628     14629     14580     14578     14628     14630
     14580     14578     14628     14631     14581     14584     14587     14588
     14581     14584     14587     14589     14581     14584     14587     14590
     14582     14581     14584     14585     14582     14581     14584     14586
     14582     14581     14584     14587     14583     14581     14584     14585
     14583     14581     14584     14586     14583     14581     14584     14587
     14584     14587     14590     14591     14584     14587     14590     14592
     14584     14587     14590     14593     14585     14584     14587     14588
     14585     14584     14587     14589     14585     14584     14587     14590
     14586     14584     14587     14588     14586     14584     14587     14589
     14586     14584     14587     14590     14587     14590     14593     14594
     14587     14590     14593     14595     14587     14590     14593     14596
     14588     14587     14590     14591     14588     14587     14590     14592
     14588     14587     14590     14593     14589     14587     14590     14591
     14589     14587     14590     14592     14589     14587     14590     14593
     14590     14593     14596     14597     14590     14593     14596     14598
     14590     14593     14596     14599     14591     14590     14593     14594
     14591     14590     14593     14595     14591     14590     14593     14596
     14592     14590     14593     14594     14592     14590     14593     14595
     14592     14590     14593     14596     14593     14596     14599     14600
     14593     14596     14599     14601     14594     14593     14596     14597
     14594     14593     14596     14598     14594     14593     14596     14599
     14595     14593     14596     14597     14595     14593     14596     14598
     14595     14593     14596     14599     14596     14599     14601     14602
     14596     14599     14601     14603     14597     14596     14599     14600
     14597     14596     14599     14601     14598     14596     14599     14600
     14598     14596     14599     14601     14599     14601     14603     14604
     14599     14601     14603     14605     14599     14601     14603     14606
     14600     14599     14601     14602     14600     14599     14601     14603
     14601     14603     14606     14607     14601     14603     14606     14608
     14601     14603     14606     14609     14602     14601     14603     14604
     14602     14601     14603     14605     14602     14601     14603     14606
     14603     14606     14609     14610     14603     14606     14609     14611
     14603     14606     14609     14612     14604     14603     14606     14607
     14604     14603     14606     14608     14604     14603     14606     14609
     14605     14603     14606     14607     14605     14603     14606     14608
     14605     14603     14606     14609     14606     14609     14612     14613
     14606     14609     14612     14614     14606     14609     14612     14615
     14607     14606     14609     14610     14607     14606     14609     14611
     14607     14606     14609     14612     14608     14606     14609     14610
     14608     14606     14609     14611     14608     14606     14609     14612
     14609     14612     14615     14616     14609     14612     14615     14617
     14609     14612     14615     14618     14610     14609     14612     14613
     14610     14609     14612     14614     14610     14609     14612     14615
     14611     14609     14612     14613     14611     14609     14612     14614
     14611     14609     14612     14615     14612     14615     14618     14619
     14612     14615     14618     14620     14612     14615     14618     14621
     14613     14612     14615     14616     14613     14612     14615     14617
     14613     14612     14615     14618     14614     14612     14615     14616
     14614     14612     14615     14617     14614     14612     14615     14618
     14615     14618     14621     14622     14615     14618     14621     14623
     14615     14618     14621     14624     14616     14615     14618     14619
     14616     14615     14618     14620     14616     14615     14618     14621
     14617     14615     14618     14619     14617     14615     14618     14620
     14617     14615     14618     14621     14618     14621     14624     14625
     14618     14621     14624     14626     14618     14621     14624     14627
     14619     14618     14621     14622     14619     14618     14621     14623
     14619     14618     14621     14624     14620     14618     14621     14622
     14620     14618     14621     14623     14620     14618     14621     14624
     14622     14621     14624     14625     14622     14621     14624     14626
     14622     14621     14624     14627     14623     14621     14624     14625
     14623     14621     14624     14626     14623     14621     14624     14627
     14628     14631     14634     14635     14628     14631     14634     14636
     14628     14631     14634     14637     14629     14628     14631     14632
     14629     14628     14631     14633     14629     14628     14631     14634
     14630     14628     14631     14632     14630     14628     14631     14633
     14630     14628     14631     14634     14631     14634     14637     14638
     14631     14634     14637     14639     14631     14634     14637     14640
     14632     14631     14634     14635     14632     14631     14634     14636
     14632     14631     14634     14637     14633     14631     14634     14635
     14633     14631     14634     14636     14633     14631     14634     14637
     14634     14637     14640     14641     14634     14637     14640     14642
     14634     14637     14640     14643     14635     14634     14637     14638
     14635     14634     14637     14639     14635     14634     14637     14640
     14636     14634     14637     14638     14636     14634     14637     14639
     14636     14634     14637     14640     14637     14640     14643     14644
     14637     14640     14643     14645     14637     14640     14643     14646
     14638     14637     14640     14641     14638     14637     14640     14642
     14638     14637     14640     14643     14639     14637     14640     14641
     14639     14637     14640     14642     14639     14637     14640     14643
     14640     14643     14646     14647     14640     14643     14646     14648
     14641     14640     14643     14644     14641     14640     14643     14645
     14641     14640     14643     14646     14642     14640     14643     14644
     14642     14640     14643     14645     14642     14640     14643     14646
     14643     14646     14648     14649     14643     14646     14648     14650
     14644     14643     14646     14647     14644     14643     14646     14648
     14645     14643     14646     14647     14645     14643     14646     14648
     14646     14648     14650     14651     14646     14648     14650     14652
     14646     14648     14650     14653     14647     14646     14648     14649
     14647     14646     14648     14650     14648     14650     14653     14654
     14648     14650     14653     14655     14648     14650     14653     14656
     14649     14648     14650     14651     14649     14648     14650     14652
     14649     14648     14650     14653     14650     14653     14656     14657
     14650     14653     14656     14658     14650     14653     14656     14659
     14651     14650     14653     14654     14651     14650     14653     14655
     14651     14650     14653     14656     14652     14650     14653     14654
     14652     14650     14653     14655     14652     14650     14653     14656
     14653     14656     14659     14660     14653     14656     14659     14661
     14653     14656     14659     14662     14654     14653     14656     14657
     14654     14653     14656     14658     14654     14653     14656     14659
     14655     14653     14656     14657     14655     14653     14656     14658
     14655     14653     14656     14659     14656     14659     14662     14663
     14656     14659     14662     14664     14656     14659     14662     14665
     14657     14656     14659     14660     14657     14656     14659     14661
     14657     14656     14659     14662     14658     14656     14659     14660
     14658     14656     14659     14661     14658     14656     14659     14662
     14659     14662     14665     14666     14659     14662     14665     14667
     14659     14662     14665     14668     14660     14659     14662     14663
     14660     14659     14662     14664     14660     14659     14662     14665
     14661     14659     14662     14663     14661     14659     14662     14664
     14661     14659     14662     14665     14662     14665     14668     14669
     14662     14665     14668     14670     14662     14665     14668     14671
     14663     14662     14665     14666     14663     14662     14665     14667
     14663     14662     14665     14668     14664     14662     14665     14666
     14664     14662     14665     14667     14664     14662     14665     14668
     14665     14668     14671     14672     14665     14668     14671     14673
     14665     14668     14671     14674     14666     14665     14668     14669
     14666     14665     14668     14670     14666     14665     14668     14671
     14667     14665     14668     14669     14667     14665     14668     14670
     14667     14665     14668     14671     14669     14668     14671     14672
     14669     14668     14671     14673     14669     14668     14671     14674
     14670     14668     14671     14672     14670     14668     14671     14673
     14670     14668     14671     14674     14675     14676     14691     14692
     14675     14676     14691     14693     14675     14676     14691     14697
     14676     14675     14679     14680     14676     14675     14679     14681
     14676     14675     14679     14682     14676     14675     14683     14684
     14676     14675     14683     14685     14676     14675     14683     14686
     14676     14675     14687     14688     14676     14675     14687     14689
     14676     14675     14687     14690     14676     14691     14697     14694
     14677     14676     14675     14679     14677     14676     14675     14683
     14677     14676     14675     14687     14677     14676     14691     14692
     14677     14676     14691     14693     14677     14676     14691     14697
     14678     14676     14675     14679     14678     14676     14675     14683
     14678     14676     14675     14687     14678     14676     14691     14692
     14678     14676     14691     14693     14678     14676     14691     14697
     14679     14675     14676     14691     14679     14675     14683     14684
     14679     14675     14683     14685     14679     14675     14683     14686
     14679     14675     14687     14688     14679     14675     14687     14689
     14679     14675     14687     14690     14680     14679     14675     14683
     14680     14679     14675     14687     14681     14679     14675     14683
     14681     14679     14675     14687     14682     14679     14675     14683
     14682     14679     14675     14687     14683     14675     14676     14691
     14683     14675     14687     14688     14683     14675     14687     14689
     14683     14675     14687     14690     14684     14683     14675     14687
     14685     14683     14675     14687     14686     14683     14675     14687
     14687     14675     14676     14691     14691     14697     14694     14695
     14691     14697     14694     14696     14691     14697     14694     14698
     14692     14691     14697     14694     14693     14691     14697     14694
     14694     14698     14699     14700     14694     14698     14699     14701
     14694     14698     14699     14702     14695     14694     14698     14699
     14696     14694     14698     14699     14697     14694     14698     14699
     14698     14699     14702     14703     14698     14699     14702     14704
     14698     14699     14702     14710     14699     14702     14704     14705
     14699     14702     14710     14711     14699     14702     14710     14712
     14699     14702     14710     14713     14700     14699     14702     14703
     14700     14699     14702     14704     14700     14699     14702     14710
     14701     14699     14702     14703     14701     14699     14702     14704
     14701     14699     14702     14710     14702     14704     14705     14706
     14702     14704     14705     14707     14702     14710     14713     14714
     14703     14702     14704     14705     14703     14702     14710     14711
     14703     14702     14710     14712     14703     14702     14710     14713
     14704     14702     14710     14711     14704     14702     14710     14712
     14704     14702     14710     14713     14704     14705     14707     14708
     14704     14705     14707     14709     14704     14705     14707     14719
     14705     14704     14702     14710     14705     14707     14719     14720
     14705     14707     14719     14721     14705     14707     14719     14722
     14706     14705     14707     14708     14706     14705     14707     14709
     14706     14705     14707     14719     14707     14719     14722     14723
     14707     14719     14722     14724     14707     14719     14722     14725
     14708     14707     14719     14720     14708     14707     14719     14721
     14708     14707     14719     14722     14709     14707     14719     14720
     14709     14707     14719     14721     14709     14707     14719     14722
     14710     14713     14714     14715     14710     14713     14714     14716
     14711     14710     14713     14714     14712     14710     14713     14714
     14713     14714     14716     14717     14713     14714     14716     14718
     14713     14714     14716     14766     14714     14716     14766     14767
     14714     14716     14766     14768     14714     14716     14766     14769
     14715     14714     14716     14717     14715     14714     14716     14718
     14715     14714     14716     14766     14716     14766     14769     14770
     14716     14766     14769     14771     14716     14766     14769     14772
     14717     14716     14766     14767     14717     14716     14766     14768
     14717     14716     14766     14769     14718     14716     14766     14767
     14718     14716     14766     14768     14718     14716     14766     14769
     14719     14722     14725     14726     14719     14722     14725     14727
     14719     14722     14725     14728     14720     14719     14722     14723
     14720     14719     14722     14724     14720     14719     14722     14725
     14721     14719     14722     14723     14721     14719     14722     14724
     14721     14719     14722     14725     14722     14725     14728     14729
     14722     14725     14728     14730     14722     14725     14728     14731
     14723     14722     14725     14726     14723     14722     14725     14727
     14723     14722     14725     14728     14724     14722     14725     14726
     14724     14722     14725     14727     14724     14722     14725     14728
     14725     14728     14731     14732     14725     14728     14731     14733
     14725     14728     14731     14734     14726     14725     14728     14729
     14726     14725     14728     14730     14726     14725     14728     14731
     14727     14725     14728     14729     14727     14725     14728     14730
     14727     14725     14728     14731     14728     14731     14734     14735
     14728     14731     14734     14736     14728     14731     14734     14737
     14729     14728     14731     14732     14729     14728     14731     14733
     14729     14728     14731     14734     14730     14728     14731     14732
     14730     14728     14731     14733     14730     14728     14731     14734
     14731     14734     14737     14738     14731     14734     14737     14739
     14732     14731     14734     14735     14732     14731     14734     14736
     14732     14731     14734     14737     14733     14731     14734     14735
     14733     14731     14734     14736     14733     14731     14734     14737
     14734     14737     14739     14740     14734     14737     14739     14741
     14735     14734     14737     14738     14735     14734     14737     14739
     14736     14734     14737     14738     14736     14734     14737     14739
     14737     14739     14741     14742     14737     14739     14741     14743
     14737     14739     14741     14744     14738     14737     14739     14740
     14738     14737     14739     14741     14739     14741     14744     14745
     14739     14741     14744     14746     14739     14741     14744     14747
     14740     14739     14741     14742     14740     14739     14741     14743
     14740     14739     14741     14744     14741     14744     14747     14748
     14741     14744     14747     14749     14741     14744     14747     14750
     14742     14741     14744     14745     14742     14741     14744     14746
     14742     14741     14744     14747     14743     14741     14744     14745
     14743     14741     14744     14746     14743     14741     14744     14747
     14744     14747     14750     14751     14744     14747     14750     14752
     14744     14747     14750     14753     14745     14744     14747     14748
     14745     14744     14747     14749     14745     14744     14747     14750
     14746     14744     14747     14748     14746     14744     14747     14749
     14746     14744     14747     14750     14747     14750     14753     14754
     14747     14750     14753     14755     14747     14750     14753     14756
     14748     14747     14750     14751     14748     14747     14750     14752
     14748     14747     14750     14753     14749     14747     14750     14751
     14749     14747     14750     14752     14749     14747     14750     14753
     14750     14753     14756     14757     14750     14753     14756     14758
     14750     14753     14756     14759     14751     14750     14753     14754
     14751     14750     14753     14755     14751     14750     14753     14756
     14752     14750     14753     14754     14752     14750     14753     14755
     14752     14750     14753     14756     14753     14756     14759     14760
     14753     14756     14759     14761     14753     14756     14759     14762
     14754     14753     14756     14757     14754     14753     14756     14758
     14754     14753     14756     14759     14755     14753     14756     14757
     14755     14753     14756     14758     14755     14753     14756     14759
     14756     14759     14762     14763     14756     14759     14762     14764
     14756     14759     14762     14765     14757     14756     14759     14760
     14757     14756     14759     14761     14757     14756     14759     14762
     14758     14756     14759     14760     14758     14756     14759     14761
     14758     14756     14759     14762     14760     14759     14762     14763
     14760     14759     14762     14764     14760     14759     14762     14765
     14761     14759     14762     14763     14761     14759     14762     14764
     14761     14759     14762     14765     14766     14769     14772     14773
     14766     14769     14772     14774     14766     14769     14772     14775
     14767     14766     14769     14770     14767     14766     14769     14771
     14767     14766     14769     14772     14768     14766     14769     14770
     14768     14766     14769     14771     14768     14766     14769     14772
     14769     14772     14775     14776     14769     14772     14775     14777
     14769     14772     14775     14778     14770     14769     14772     14773
     14770     14769     14772     14774     14770     14769     14772     14775
     14771     14769     14772     14773     14771     14769     14772     14774
     14771     14769     14772     14775     14772     14775     14778     14779
     14772     14775     14778     14780     14772     14775     14778     14781
     14773     14772     14775     14776     14773     14772     14775     14777
     14773     14772     14775     14778     14774     14772     14775     14776
     14774     14772     14775     14777     14774     14772     14775     14778
     14775     14778     14781     14782     14775     14778     14781     14783
     14775     14778     14781     14784     14776     14775     14778     14779
     14776     14775     14778     14780     14776     14775     14778     14781
     14777     14775     14778     14779     14777     14775     14778     14780
     14777     14775     14778     14781     14778     14781     14784     14785
     14778     14781     14784     14786     14779     14778     14781     14782
     14779     14778     14781     14783     14779     14778     14781     14784
     14780     14778     14781     14782     14780     14778     14781     14783
     14780     14778     14781     14784     14781     14784     14786     14787
     14781     14784     14786     14788     14782     14781     14784     14785
     14782     14781     14784     14786     14783     14781     14784     14785
     14783     14781     14784     14786     14784     14786     14788     14789
     14784     14786     14788     14790     14784     14786     14788     14791
     14785     14784     14786     14787     14785     14784     14786     14788
     14786     14788     14791     14792     14786     14788     14791     14793
     14786     14788     14791     14794     14787     14786     14788     14789
     14787     14786     14788     14790     14787     14786     14788     14791
     14788     14791     14794     14795     14788     14791     14794     14796
     14788     14791     14794     14797     14789     14788     14791     14792
     14789     14788     14791     14793     14789     14788     14791     14794
     14790     14788     14791     14792     14790     14788     14791     14793
     14790     14788     14791     14794     14791     14794     14797     14798
     14791     14794     14797     14799     14791     14794     14797     14800
     14792     14791     14794     14795     14792     14791     14794     14796
     14792     14791     14794     14797     14793     14791     14794     14795
     14793     14791     14794     14796     14793     14791     14794     14797
     14794     14797     14800     14801     14794     14797     14800     14802
     14794     14797     14800     14803     14795     14794     14797     14798
     14795     14794     14797     14799     14795     14794     14797     14800
     14796     14794     14797     14798     14796     14794     14797     14799
     14796     14794     14797     14800     14797     14800     14803     14804
     14797     14800     14803     14805     14797     14800     14803     14806
     14798     14797     14800     14801     14798     14797     14800     14802
     14798     14797     14800     14803     14799     14797     14800     14801
     14799     14797     14800     14802     14799     14797     14800     14803
     14800     14803     14806     14807     14800     14803     14806     14808
     14800     14803     14806     14809     14801     14800     14803     14804
     14801     14800     14803     14805     14801     14800     14803     14806
     14802     14800     14803     14804     14802     14800     14803     14805
     14802     14800     14803     14806     14803     14806     14809     14810
     14803     14806     14809     14811     14803     14806     14809     14812
     14804     14803     14806     14807     14804     14803     14806     14808
     14804     14803     14806     14809     14805     14803     14806     14807
     14805     14803     14806     14808     14805     14803     14806     14809
     14807     14806     14809     14810     14807     14806     14809     14811
     14807     14806     14809     14812     14808     14806     14809     14810
     14808     14806     14809     14811     14808     14806     14809     14812
     14813     14817     14820     14821     14813     14817     14820     14822
     14813     14817     14820     14827     14814     14813     14817     14818
     14814     14813     14817     14819     14814     14813     14817     14820
     14815     14813     14817     14818     14815     14813     14817     14819
     14815     14813     14817     14820     14816     14813     14817     14818
     14816     14813     14817     14819     14816     14813     14817     14820
     14817     14820     14827     14823     14818     14817     14820     14821
     14818     14817     14820     14822     14818     14817     14820     14827
     14819     14817     14820     14821     14819     14817     14820     14822
     14819     14817     14820     14827     14820     14827     14823     14824
     14820     14827     14823     14825     14820     14827     14823     14826
     14821     14820     14827     14823     14822     14820     14827     14823
     14823     14826     14828     14829     14823     14826     14828     14830
     14823     14826     14828     14831     14824     14823     14826     14828
     14825     14823     14826     14828     14826     14828     14831     14832
     14826     14828     14831     14833     14826     14828     14831     14839
     14827     14823     14826     14828     14828     14831     14833     14834
     14828     14831     14839     14840     14828     14831     14839     14841
     14828     14831     14839     14842     14829     14828     14831     14832
     14829     14828     14831     14833     14829     14828     14831     14839
     14830     14828     14831     14832     14830     14828     14831     14833
     14830     14828     14831     14839     14831     14833     14834     14835
     14831     14833     14834     14836     14831     14839     14842     14843
     14832     14831     14833     14834     14832     14831     14839     14840
     14832     14831     14839     14841     14832     14831     14839     14842
     14833     14831     14839     14840     14833     14831     14839     14841
     14833     14831     14839     14842     14833     14834     14836     14837
     14833     14834     14836     14838     14833     14834     14836     14848
     14834     14833     14831     14839     14834     14836     14848     14849
     14834     14836     14848     14850     14834     14836     14848     14851
     14835     14834     14836     14837     14835     14834     14836     14838
     14835     14834     14836     14848     14836     14848     14851     14852
     14836     14848     14851     14853     14836     14848     14851     14854
     14837     14836     14848     14849     14837     14836     14848     14850
     14837     14836     14848     14851     14838     14836     14848     14849
     14838     14836     14848     14850     14838     14836     14848     14851
     14839     14842     14843     14844     14839     14842     14843     14845
     14840     14839     14842     14843     14841     14839     14842     14843
     14842     14843     14845     14846     14842     14843     14845     14847
     14842     14843     14845     14895     14843     14845     14895     14896
     14843     14845     14895     14897     14843     14845     14895     14898
     14844     14843     14845     14846     14844     14843     14845     14847
     14844     14843     14845     14895     14845     14895     14898     14899
     14845     14895     14898     14900     14845     14895     14898     14901
     14846     14845     14895     14896     14846     14845     14895     14897
     14846     14845     14895     14898     14847     14845     14895     14896
     14847     14845     14895     14897     14847     14845     14895     14898
     14848     14851     14854     14855     14848     14851     14854     14856
     14848     14851     14854     14857     14849     14848     14851     14852
     14849     14848     14851     14853     14849     14848     14851     14854
     14850     14848     14851     14852     14850     14848     14851     14853
     14850     14848     14851     14854     14851     14854     14857     14858
     14851     14854     14857     14859     14851     14854     14857     14860
     14852     14851     14854     14855     14852     14851     14854     14856
     14852     14851     14854     14857     14853     14851     14854     14855
     14853     14851     14854     14856     14853     14851     14854     14857
     14854     14857     14860     14861     14854     14857     14860     14862
     14854     14857     14860     14863     14855     14854     14857     14858
     14855     14854     14857     14859     14855     14854     14857     14860
     14856     14854     14857     14858     14856     14854     14857     14859
     14856     14854     14857     14860     14857     14860     14863     14864
     14857     14860     14863     14865     14857     14860     14863     14866
     14858     14857     14860     14861     14858     14857     14860     14862
     14858     14857     14860     14863     14859     14857     14860     14861
     14859     14857     14860     14862     14859     14857     14860     14863
     14860     14863     14866     14867     14860     14863     14866     14868
     14861     14860     14863     14864     14861     14860     14863     14865
     14861     14860     14863     14866     14862     14860     14863     14864
     14862     14860     14863     14865     14862     14860     14863     14866
     14863     14866     14868     14869     14863     14866     14868     14870
     14864     14863     14866     14867     14864     14863     14866     14868
     14865     14863     14866     14867     14865     14863     14866     14868
     14866     14868     14870     14871     14866     14868     14870     14872
     14866     14868     14870     14873     14867     14866     14868     14869
     14867     14866     14868     14870     14868     14870     14873     14874
     14868     14870     14873     14875     14868     14870     14873     14876
     14869     14868     14870     14871     14869     14868     14870     14872
     14869     14868     14870     14873     14870     14873     14876     14877
     14870     14873     14876     14878     14870     14873     14876     14879
     14871     14870     14873     14874     14871     14870     14873     14875
     14871     14870     14873     14876     14872     14870     14873     14874
     14872     14870     14873     14875     14872     14870     14873     14876
     14873     14876     14879     14880     14873     14876     14879     14881
     14873     14876     14879     14882     14874     14873     14876     14877
     14874     14873     14876     14878     14874     14873     14876     14879
     14875     14873     14876     14877     14875     14873     14876     14878
     14875     14873     14876     14879     14876     14879     14882     14883
     14876     14879     14882     14884     14876     14879     14882     14885
     14877     14876     14879     14880     14877     14876     14879     14881
     14877     14876     14879     14882     14878     14876     14879     14880
     14878     14876     14879     14881     14878     14876     14879     14882
     14879     14882     14885     14886     14879     14882     14885     14887
     14879     14882     14885     14888     14880     14879     14882     14883
     14880     14879     14882     14884     14880     14879     14882     14885
     14881     14879     14882     14883     14881     14879     14882     14884
     14881     14879     14882     14885     14882     14885     14888     14889
     14882     14885     14888     14890     14882     14885     14888     14891
     14883     14882     14885     14886     14883     14882     14885     14887
     14883     14882     14885     14888     14884     14882     14885     14886
     14884     14882     14885     14887     14884     14882     14885     14888
     14885     14888     14891     14892     14885     14888     14891     14893
     14885     14888     14891     14894     14886     14885     14888     14889
     14886     14885     14888     14890     14886     14885     14888     14891
     14887     14885     14888     14889     14887     14885     14888     14890
     14887     14885     14888     14891     14889     14888     14891     14892
     14889     14888     14891     14893     14889     14888     14891     14894
     14890     14888     14891     14892     14890     14888     14891     14893
     14890     14888     14891     14894     14895     14898     14901     14902
     14895     14898     14901     14903     14895     14898     14901     14904
     14896     14895     14898     14899     14896     14895     14898     14900
     14896     14895     14898     14901     14897     14895     14898     14899
     14897     14895     14898     14900     14897     14895     14898     14901
     14898     14901     14904     14905     14898     14901     14904     14906
     14898     14901     14904     14907     14899     14898     14901     14902
     14899     14898     14901     14903     14899     14898     14901     14904
     14900     14898     14901     14902     14900     14898     14901     14903
     14900     14898     14901     14904     14901     14904     14907     14908
     14901     14904     14907     14909     14901     14904     14907     14910
     14902     14901     14904     14905     14902     14901     14904     14906
     14902     14901     14904     14907     14903     14901     14904     14905
     14903     14901     14904     14906     14903     14901     14904     14907
     14904     14907     14910     14911     14904     14907     14910     14912
     14904     14907     14910     14913     14905     14904     14907     14908
     14905     14904     14907     14909     14905     14904     14907     14910
     14906     14904     14907     14908     14906     14904     14907     14909
     14906     14904     14907     14910     14907     14910     14913     14914
     14907     14910     14913     14915     14908     14907     14910     14911
     14908     14907     14910     14912     14908     14907     14910     14913
     14909     14907     14910     14911     14909     14907     14910     14912
     14909     14907     14910     14913     14910     14913     14915     14916
     14910     14913     14915     14917     14911     14910     14913     14914
     14911     14910     14913     14915     14912     14910     14913     14914
     14912     14910     14913     14915     14913     14915     14917     14918
     14913     14915     14917     14919     14913     14915     14917     14920
     14914     14913     14915     14916     14914     14913     14915     14917
     14915     14917     14920     14921     14915     14917     14920     14922
     14915     14917     14920     14923     14916     14915     14917     14918
     14916     14915     14917     14919     14916     14915     14917     14920
     14917     14920     14923     14924     14917     14920     14923     14925
     14917     14920     14923     14926     14918     14917     14920     14921
     14918     14917     14920     14922     14918     14917     14920     14923
     14919     14917     14920     14921     14919     14917     14920     14922
     14919     14917     14920     14923     14920     14923     14926     14927
     14920     14923     14926     14928     14920     14923     14926     14929
     14921     14920     14923     14924     14921     14920     14923     14925
     14921     14920     14923     14926     14922     14920     14923     14924
     14922     14920     14923     14925     14922     14920     14923     14926
     14923     14926     14929     14930     14923     14926     14929     14931
     14923     14926     14929     14932     14924     14923     14926     14927
     14924     14923     14926     14928     14924     14923     14926     14929
     14925     14923     14926     14927     14925     14923     14926     14928
     14925     14923     14926     14929     14926     14929     14932     14933
     14926     14929     14932     14934     14926     14929     14932     14935
     14927     14926     14929     14930     14927     14926     14929     14931
     14927     14926     14929     14932     14928     14926     14929     14930
     14928     14926     14929     14931     14928     14926     14929     14932
     14929     14932     14935     14936     14929     14932     14935     14937
     14929     14932     14935     14938     14930     14929     14932     14933
     14930     14929     14932     14934     14930     14929     14932     14935
     14931     14929     14932     14933     14931     14929     14932     14934
     14931     14929     14932     14935     14932     14935     14938     14939
     14932     14935     14938     14940     14932     14935     14938     14941
     14933     14932     14935     14936     14933     14932     14935     14937
     14933     14932     14935     14938     14934     14932     14935     14936
     14934     14932     14935     14937     14934     14932     14935     14938
     14936     14935     14938     14939     14936     14935     14938     14940
     14936     14935     14938     14941     14937     14935     14938     14939
     14937     14935     14938     14940     14937     14935     14938     14941
     14942     14946     14949     14950     14942     14946     14949     14951
     14942     14946     14949     14956     14943     14942     14946     14947
     14943     14942     14946     14948     14943     14942     14946     14949
     14944     14942     14946     14947     14944     14942     14946     14948
     14944     14942     14946     14949     14945     14942     14946     14947
     14945     14942     14946     14948     14945     14942     14946     14949
     14946     14949     14956     14952     14947     14946     14949     14950
     14947     14946     14949     14951     14947     14946     14949     14956
     14948     14946     14949     14950     14948     14946     14949     14951
     14948     14946     14949     14956     14949     14956     14952     14953
     14949     14956     14952     14954     14949     14956     14952     14955
     14950     14949     14956     14952     14951     14949     14956     14952
     14952     14955     14957     14958     14952     14955     14957     14959
     14952     14955     14957     14960     14953     14952     14955     14957
     14954     14952     14955     14957     14955     14957     14960     14961
     14955     14957     14960     14962     14955     14957     14960     14968
     14956     14952     14955     14957     14957     14960     14962     14963
     14957     14960     14968     14969     14957     14960     14968     14970
     14957     14960     14968     14971     14958     14957     14960     14961
     14958     14957     14960     14962     14958     14957     14960     14968
     14959     14957     14960     14961     14959     14957     14960     14962
     14959     14957     14960     14968     14960     14962     14963     14964
     14960     14962     14963     14965     14960     14968     14971     14972
     14961     14960     14962     14963     14961     14960     14968     14969
     14961     14960     14968     14970     14961     14960     14968     14971
     14962     14960     14968     14969     14962     14960     14968     14970
     14962     14960     14968     14971     14962     14963     14965     14966
     14962     14963     14965     14967     14962     14963     14965     14977
     14963     14962     14960     14968     14963     14965     14977     14978
     14963     14965     14977     14979     14963     14965     14977     14980
     14964     14963     14965     14966     14964     14963     14965     14967
     14964     14963     14965     14977     14965     14977     14980     14981
     14965     14977     14980     14982     14965     14977     14980     14983
     14966     14965     14977     14978     14966     14965     14977     14979
     14966     14965     14977     14980     14967     14965     14977     14978
     14967     14965     14977     14979     14967     14965     14977     14980
     14968     14971     14972     14973     14968     14971     14972     14974
     14969     14968     14971     14972     14970     14968     14971     14972
     14971     14972     14974     14975     14971     14972     14974     14976
     14971     14972     14974     15024     14972     14974     15024     15025
     14972     14974     15024     15026     14972     14974     15024     15027
     14973     14972     14974     14975     14973     14972     14974     14976
     14973     14972     14974     15024     14974     15024     15027     15028
     14974     15024     15027     15029     14974     15024     15027     15030
     14975     14974     15024     15025     14975     14974     15024     15026
     14975     14974     15024     15027     14976     14974     15024     15025
     14976     14974     15024     15026     14976     14974     15024     15027
     14977     14980     14983     14984     14977     14980     14983     14985
     14977     14980     14983     14986     14978     14977     14980     14981
     14978     14977     14980     14982     14978     14977     14980     14983
     14979     14977     14980     14981     14979     14977     14980     14982
     14979     14977     14980     14983     14980     14983     14986     14987
     14980     14983     14986     14988     14980     14983     14986     14989
     14981     14980     14983     14984     14981     14980     14983     14985
     14981     14980     14983     14986     14982     14980     14983     14984
     14982     14980     14983     14985     14982     14980     14983     14986
     14983     14986     14989     14990     14983     14986     14989     14991
     14983     14986     14989     14992     14984     14983     14986     14987
     14984     14983     14986     14988     14984     14983     14986     14989
     14985     14983     14986     14987     14985     14983     14986     14988
     14985     14983     14986     14989     14986     14989     14992     14993
     14986     14989     14992     14994     14986     14989     14992     14995
     14987     14986     14989     14990     14987     14986     14989     14991
     14987     14986     14989     14992     14988     14986     14989     14990
     14988     14986     14989     14991     14988     14986     14989     14992
     14989     14992     14995     14996     14989     14992     14995     14997
     14990     14989     14992     14993     14990     14989     14992     14994
     14990     14989     14992     14995     14991     14989     14992     14993
     14991     14989     14992     14994     14991     14989     14992     14995
     14992     14995     14997     14998     14992     14995     14997     14999
     14993     14992     14995     14996     14993     14992     14995     14997
     14994     14992     14995     14996     14994     14992     14995     14997
     14995     14997     14999     15000     14995     14997     14999     15001
     14995     14997     14999     15002     14996     14995     14997     14998
     14996     14995     14997     14999     14997     14999     15002     15003
     14997     14999     15002     15004     14997     14999     15002     15005
     14998     14997     14999     15000     14998     14997     14999     15001
     14998     14997     14999     15002     14999     15002     15005     15006
     14999     15002     15005     15007     14999     15002     15005     15008
     15000     14999     15002     15003     15000     14999     15002     15004
     15000     14999     15002     15005     15001     14999     15002     15003
     15001     14999     15002     15004     15001     14999     15002     15005
     15002     15005     15008     15009     15002     15005     15008     15010
     15002     15005     15008     15011     15003     15002     15005     15006
     15003     15002     15005     15007     15003     15002     15005     15008
     15004     15002     15005     15006     15004     15002     15005     15007
     15004     15002     15005     15008     15005     15008     15011     15012
     15005     15008     15011     15013     15005     15008     15011     15014
     15006     15005     15008     15009     15006     15005     15008     15010
     15006     15005     15008     15011     15007     15005     15008     15009
     15007     15005     15008     15010     15007     15005     15008     15011
     15008     15011     15014     15015     15008     15011     15014     15016
     15008     15011     15014     15017     15009     15008     15011     15012
     15009     15008     15011     15013     15009     15008     15011     15014
     15010     15008     15011     15012     15010     15008     15011     15013
     15010     15008     15011     15014     15011     15014     15017     15018
     15011     15014     15017     15019     15011     15014     15017     15020
     15012     15011     15014     15015     15012     15011     15014     15016
     15012     15011     15014     15017     15013     15011     15014     15015
     15013     15011     15014     15016     15013     15011     15014     15017
     15014     15017     15020     15021     15014     15017     15020     15022
     15014     15017     15020     15023     15015     15014     15017     15018
     15015     15014     15017     15019     15015     15014     15017     15020
     15016     15014     15017     15018     15016     15014     15017     15019
     15016     15014     15017     15020     15018     15017     15020     15021
     15018     15017     15020     15022     15018     15017     15020     15023
     15019     15017     15020     15021     15019     15017     15020     15022
     15019     15017     15020     15023     15024     15027     15030     15031
     15024     15027     15030     15032     15024     15027     15030     15033
     15025     15024     15027     15028     15025     15024     15027     15029
     15025     15024     15027     15030     15026     15024     15027     15028
     15026     15024     15027     15029     15026     15024     15027     15030
     15027     15030     15033     15034     15027     15030     15033     15035
     15027     15030     15033     15036     15028     15027     15030     15031
     15028     15027     15030     15032     15028     15027     15030     15033
     15029     15027     15030     15031     15029     15027     15030     15032
     15029     15027     15030     15033     15030     15033     15036     15037
     15030     15033     15036     15038     15030     15033     15036     15039
     15031     15030     15033     15034     15031     15030     15033     15035
     15031     15030     15033     15036     15032     15030     15033     15034
     15032     15030     15033     15035     15032     15030     15033     15036
     15033     15036     15039     15040     15033     15036     15039     15041
     15033     15036     15039     15042     15034     15033     15036     15037
     15034     15033     15036     15038     15034     15033     15036     15039
     15035     15033     15036     15037     15035     15033     15036     15038
     15035     15033     15036     15039     15036     15039     15042     15043
     15036     15039     15042     15044     15037     15036     15039     15040
     15037     15036     15039     15041     15037     15036     15039     15042
     15038     15036     15039     15040     15038     15036     15039     15041
     15038     15036     15039     15042     15039     15042     15044     15045
     15039     15042     15044     15046     15040     15039     15042     15043
     15040     15039     15042     15044     15041     15039     15042     15043
     15041     15039     15042     15044     15042     15044     15046     15047
     15042     15044     15046     15048     15042     15044     15046     15049
     15043     15042     15044     15045     15043     15042     15044     15046
     15044     15046     15049     15050     15044     15046     15049     15051
     15044     15046     15049     15052     15045     15044     15046     15047
     15045     15044     15046     15048     15045     15044     15046     15049
     15046     15049     15052     15053     15046     15049     15052     15054
     15046     15049     15052     15055     15047     15046     15049     15050
     15047     15046     15049     15051     15047     15046     15049     15052
     15048     15046     15049     15050     15048     15046     15049     15051
     15048     15046     15049     15052     15049     15052     15055     15056
     15049     15052     15055     15057     15049     15052     15055     15058
     15050     15049     15052     15053     15050     15049     15052     15054
     15050     15049     15052     15055     15051     15049     15052     15053
     15051     15049     15052     15054     15051     15049     15052     15055
     15052     15055     15058     15059     15052     15055     15058     15060
     15052     15055     15058     15061     15053     15052     15055     15056
     15053     15052     15055     15057     15053     15052     15055     15058
     15054     15052     15055     15056     15054     15052     15055     15057
     15054     15052     15055     15058     15055     15058     15061     15062
     15055     15058     15061     15063     15055     15058     15061     15064
     15056     15055     15058     15059     15056     15055     15058     15060
     15056     15055     15058     15061     15057     15055     15058     15059
     15057     15055     15058     15060     15057     15055     15058     15061
     15058     15061     15064     15065     15058     15061     15064     15066
     15058     15061     15064     15067     15059     15058     15061     15062
     15059     15058     15061     15063     15059     15058     15061     15064
     15060     15058     15061     15062     15060     15058     15061     15063
     15060     15058     15061     15064     15061     15064     15067     15068
     15061     15064     15067     15069     15061     15064     15067     15070
     15062     15061     15064     15065     15062     15061     15064     15066
     15062     15061     15064     15067     15063     15061     15064     15065
     15063     15061     15064     15066     15063     15061     15064     15067
     15065     15064     15067     15068     15065     15064     15067     15069
     15065     15064     15067     15070     15066     15064     15067     15068
     15066     15064     15067     15069     15066     15064     15067     15070
     15071     15075     15078     15079     15071     15075     15078     15080
     15071     15075     15078     15085     15072     15071     15075     15076
     15072     15071     15075     15077     15072     15071     15075     15078
     15073     15071     15075     15076     15073     15071     15075     15077
     15073     15071     15075     15078     15074     15071     15075     15076
     15074     15071     15075     15077     15074     15071     15075     15078
     15075     15078     15085     15081     15076     15075     15078     15079
     15076     15075     15078     15080     15076     15075     15078     15085
     15077     15075     15078     15079     15077     15075     15078     15080
     15077     15075     15078     15085     15078     15085     15081     15082
     15078     15085     15081     15083     15078     15085     15081     15084
     15079     15078     15085     15081     15080     15078     15085     15081
     15081     15084     15086     15087     15081     15084     15086     15088
     15081     15084     15086     15089     15082     15081     15084     15086
     15083     15081     15084     15086     15084     15086     15089     15090
     15084     15086     15089     15091     15084     15086     15089     15097
     15085     15081     15084     15086     15086     15089     15091     15092
     15086     15089     15097     15098     15086     15089     15097     15099
     15086     15089     15097     15100     15087     15086     15089     15090
     15087     15086     15089     15091     15087     15086     15089     15097
     15088     15086     15089     15090     15088     15086     15089     15091
     15088     15086     15089     15097     15089     15091     15092     15093
     15089     15091     15092     15094     15089     15097     15100     15101
     15090     15089     15091     15092     15090     15089     15097     15098
     15090     15089     15097     15099     15090     15089     15097     15100
     15091     15089     15097     15098     15091     15089     15097     15099
     15091     15089     15097     15100     15091     15092     15094     15095
     15091     15092     15094     15096     15091     15092     15094     15106
     15092     15091     15089     15097     15092     15094     15106     15107
     15092     15094     15106     15108     15092     15094     15106     15109
     15093     15092     15094     15095     15093     15092     15094     15096
     15093     15092     15094     15106     15094     15106     15109     15110
     15094     15106     15109     15111     15094     15106     15109     15112
     15095     15094     15106     15107     15095     15094     15106     15108
     15095     15094     15106     15109     15096     15094     15106     15107
     15096     15094     15106     15108     15096     15094     15106     15109
     15097     15100     15101     15102     15097     15100     15101     15103
     15098     15097     15100     15101     15099     15097     15100     15101
     15100     15101     15103     15104     15100     15101     15103     15105
     15100     15101     15103     15153     15101     15103     15153     15154
     15101     15103     15153     15155     15101     15103     15153     15156
     15102     15101     15103     15104     15102     15101     15103     15105
     15102     15101     15103     15153     15103     15153     15156     15157
     15103     15153     15156     15158     15103     15153     15156     15159
     15104     15103     15153     15154     15104     15103     15153     15155
     15104     15103     15153     15156     15105     15103     15153     15154
     15105     15103     15153     15155     15105     15103     15153     15156
     15106     15109     15112     15113     15106     15109     15112     15114
     15106     15109     15112     15115     15107     15106     15109     15110
     15107     15106     15109     15111     15107     15106     15109     15112
     15108     15106     15109     15110     15108     15106     15109     15111
     15108     15106     15109     15112     15109     15112     15115     15116
     15109     15112     15115     15117     15109     15112     15115     15118
     15110     15109     15112     15113     15110     15109     15112     15114
     15110     15109     15112     15115     15111     15109     15112     15113
     15111     15109     15112     15114     15111     15109     15112     15115
     15112     15115     15118     15119     15112     15115     15118     15120
     15112     15115     15118     15121     15113     15112     15115     15116
     15113     15112     15115     15117     15113     15112     15115     15118
     15114     15112     15115     15116     15114     15112     15115     15117
     15114     15112     15115     15118     15115     15118     15121     15122
     15115     15118     15121     15123     15115     15118     15121     15124
     15116     15115     15118     15119     15116     15115     15118     15120
     15116     15115     15118     15121     15117     15115     15118     15119
     15117     15115     15118     15120     15117     15115     15118     15121
     15118     15121     15124     15125     15118     15121     15124     15126
     15119     15118     15121     15122     15119     15118     15121     15123
     15119     15118     15121     15124     15120     15118     15121     15122
     15120     15118     15121     15123     15120     15118     15121     15124
     15121     15124     15126     15127     15121     15124     15126     15128
     15122     15121     15124     15125     15122     15121     15124     15126
     15123     15121     15124     15125     15123     15121     15124     15126
     15124     15126     15128     15129     15124     15126     15128     15130
     15124     15126     15128     15131     15125     15124     15126     15127
     15125     15124     15126     15128     15126     15128     15131     15132
     15126     15128     15131     15133     15126     15128     15131     15134
     15127     15126     15128     15129     15127     15126     15128     15130
     15127     15126     15128     15131     15128     15131     15134     15135
     15128     15131     15134     15136     15128     15131     15134     15137
     15129     15128     15131     15132     15129     15128     15131     15133
     15129     15128     15131     15134     15130     15128     15131     15132
     15130     15128     15131     15133     15130     15128     15131     15134
     15131     15134     15137     15138     15131     15134     15137     15139
     15131     15134     15137     15140     15132     15131     15134     15135
     15132     15131     15134     15136     15132     15131     15134     15137
     15133     15131     15134     15135     15133     15131     15134     15136
     15133     15131     15134     15137     15134     15137     15140     15141
     15134     15137     15140     15142     15134     15137     15140     15143
     15135     15134     15137     15138     15135     15134     15137     15139
     15135     15134     15137     15140     15136     15134     15137     15138
     15136     15134     15137     15139     15136     15134     15137     15140
     15137     15140     15143     15144     15137     15140     15143     15145
     15137     15140     15143     15146     15138     15137     15140     15141
     15138     15137     15140     15142     15138     15137     15140     15143
     15139     15137     15140     15141     15139     15137     15140     15142
     15139     15137     15140     15143     15140     15143     15146     15147
     15140     15143     15146     15148     15140     15143     15146     15149
     15141     15140     15143     15144     15141     15140     15143     15145
     15141     15140     15143     15146     15142     15140     15143     15144
     15142     15140     15143     15145     15142     15140     15143     15146
     15143     15146     15149     15150     15143     15146     15149     15151
     15143     15146     15149     15152     15144     15143     15146     15147
     15144     15143     15146     15148     15144     15143     15146     15149
     15145     15143     15146     15147     15145     15143     15146     15148
     15145     15143     15146     15149     15147     15146     15149     15150
     15147     15146     15149     15151     15147     15146     15149     15152
     15148     15146     15149     15150     15148     15146     15149     15151
     15148     15146     15149     15152     15153     15156     15159     15160
     15153     15156     15159     15161     15153     15156     15159     15162
     15154     15153     15156     15157     15154     15153     15156     15158
     15154     15153     15156     15159     15155     15153     15156     15157
     15155     15153     15156     15158     15155     15153     15156     15159
     15156     15159     15162     15163     15156     15159     15162     15164
     15156     15159     15162     15165     15157     15156     15159     15160
     15157     15156     15159     15161     15157     15156     15159     15162
     15158     15156     15159     15160     15158     15156     15159     15161
     15158     15156     15159     15162     15159     15162     15165     15166
     15159     15162     15165     15167     15159     15162     15165     15168
     15160     15159     15162     15163     15160     15159     15162     15164
     15160     15159     15162     15165     15161     15159     15162     15163
     15161     15159     15162     15164     15161     15159     15162     15165
     15162     15165     15168     15169     15162     15165     15168     15170
     15162     15165     15168     15171     15163     15162     15165     15166
     15163     15162     15165     15167     15163     15162     15165     15168
     15164     15162     15165     15166     15164     15162     15165     15167
     15164     15162     15165     15168     15165     15168     15171     15172
     15165     15168     15171     15173     15166     15165     15168     15169
     15166     15165     15168     15170     15166     15165     15168     15171
     15167     15165     15168     15169     15167     15165     15168     15170
     15167     15165     15168     15171     15168     15171     15173     15174
     15168     15171     15173     15175     15169     15168     15171     15172
     15169     15168     15171     15173     15170     15168     15171     15172
     15170     15168     15171     15173     15171     15173     15175     15176
     15171     15173     15175     15177     15171     15173     15175     15178
     15172     15171     15173     15174     15172     15171     15173     15175
     15173     15175     15178     15179     15173     15175     15178     15180
     15173     15175     15178     15181     15174     15173     15175     15176
     15174     15173     15175     15177     15174     15173     15175     15178
     15175     15178     15181     15182     15175     15178     15181     15183
     15175     15178     15181     15184     15176     15175     15178     15179
     15176     15175     15178     15180     15176     15175     15178     15181
     15177     15175     15178     15179     15177     15175     15178     15180
     15177     15175     15178     15181     15178     15181     15184     15185
     15178     15181     15184     15186     15178     15181     15184     15187
     15179     15178     15181     15182     15179     15178     15181     15183
     15179     15178     15181     15184     15180     15178     15181     15182
     15180     15178     15181     15183     15180     15178     15181     15184
     15181     15184     15187     15188     15181     15184     15187     15189
     15181     15184     15187     15190     15182     15181     15184     15185
     15182     15181     15184     15186     15182     15181     15184     15187
     15183     15181     15184     15185     15183     15181     15184     15186
     15183     15181     15184     15187     15184     15187     15190     15191
     15184     15187     15190     15192     15184     15187     15190     15193
     15185     15184     15187     15188     15185     15184     15187     15189
     15185     15184     15187     15190     15186     15184     15187     15188
     15186     15184     15187     15189     15186     15184     15187     15190
     15187     15190     15193     15194     15187     15190     15193     15195
     15187     15190     15193     15196     15188     15187     15190     15191
     15188     15187     15190     15192     15188     15187     15190     15193
     15189     15187     15190     15191     15189     15187     15190     15192
     15189     15187     15190     15193     15190     15193     15196     15197
     15190     15193     15196     15198     15190     15193     15196     15199
     15191     15190     15193     15194     15191     15190     15193     15195
     15191     15190     15193     15196     15192     15190     15193     15194
     15192     15190     15193     15195     15192     15190     15193     15196
     15194     15193     15196     15197     15194     15193     15196     15198
     15194     15193     15196     15199     15195     15193     15196     15197
     15195     15193     15196     15198     15195     15193     15196     15199
     15200     15213     15216     15217     15200     15213     15216     15218
     15200     15213     15216     15223     15201     15200     15205     15206
     15201     15200     15205     15207     15201     15200     15205     15208
     15201     15200     15209     15210     15201     15200     15209     15211
     15201     15200     15209     15212     15201     15200     15213     15214
     15201     15200     15213     15215     15201     15200     15213     15216
     15202     15201     15200     15205     15202     15201     15200     15209
     15202     15201     15200     15213     15203     15201     15200     15205
     15203     15201     15200     15209     15203     15201     15200     15213
     15204     15201     15200     15205     15204     15201     15200     15209
     15204     15201     15200     15213     15205     15200     15209     15210
     15205     15200     15209     15211     15205     15200     15209     15212
     15205     15200     15213     15214     15205     15200     15213     15215
     15205     15200     15213     15216     15206     15205     15200     15209
     15206     15205     15200     15213     15207     15205     15200     15209
     15207     15205     15200     15213     15208     15205     15200     15209
     15208     15205     15200     15213     15209     15200     15213     15214
     15209     15200     15213     15215     15209     15200     15213     15216
     15210     15209     15200     15213     15211     15209     15200     15213
     15212     15209     15200     15213     15213     15216     15223     15219
     15214     15213     15216     15217     15214     15213     15216     15218
     15214     15213     15216     15223     15215     15213     15216     15217
     15215     15213     15216     15218     15215     15213     15216     15223
     15216     15223     15219     15220     15216     15223     15219     15221
     15216     15223     15219     15222     15217     15216     15223     15219
     15218     15216     15223     15219     15219     15222     15224     15225
     15219     15222     15224     15226     15219     15222     15224     15229
     15220     15219     15222     15224     15221     15219     15222     15224
     15222     15224     15229     15227     15222     15224     15229     15230
     15222     15224     15229     15231     15223     15219     15222     15224
     15224     15229     15227     15228     15224     15229     15227     15279
     15224     15229     15231     15232     15224     15229     15231     15233
     15224     15229     15231     15235     15225     15224     15229     15227
     15225     15224     15229     15230     15225     15224     15229     15231
     15226     15224     15229     15227     15226     15224     15229     15230
     15226     15224     15229     15231     15227     15229     15231     15232
     15227     15229     15231     15233     15227     15229     15231     15235
     15227     15279     15281     15282     15227     15279     15281     15283
     15227     15279     15281     15284     15228     15227     15229     15230
     15228     15227     15229     15231     15228     15227     15279     15280
     15228     15227     15279     15281     15229     15227     15279     15280
     15229     15227     15279     15281     15229     15231     15233     15234
     15229     15231     15235     15236     15229     15231     15235     15237
     15230     15229     15227     15279     15230     15229     15231     15232
     15230     15229     15231     15233     15230     15229     15231     15235
     15231     15229     15227     15279     15231     15235     15237     15238
     15231     15235     15237     15239     15232     15231     15233     15234
     15232     15231     15235     15236     15232     15231     15235     15237
     15233     15231     15235     15236     15233     15231     15235     15237
     15234     15233     15231     15235     15235     15237     15239     15240
     15235     15237     15239     15241     15235     15237     15239     15242
     15236     15235     15237     15238     15236     15235     15237     15239
     15237     15239     15242     15243     15237     15239     15242     15244
     15237     15239     15242     15245     15238     15237     15239     15240
     15238     15237     15239     15241     15238     15237     15239     15242
     15239     15242     15245     15246     15239     15242     15245     15247
     15239     15242     15245     15248     15240     15239     15242     15243
     15240     15239     15242     15244     15240     15239     15242     15245
     15241     15239     15242     15243     15241     15239     15242     15244
     15241     15239     15242     15245     15242     15245     15248     15249
     15242     15245     15248     15250     15242     15245     15248     15251
     15243     15242     15245     15246     15243     15242     15245     15247
     15243     15242     15245     15248     15244     15242     15245     15246
     15244     15242     15245     15247     15244     15242     15245     15248
     15245     15248     15251     15252     15245     15248     15251     15253
     15245     15248     15251     15254     15246     15245     15248     15249
     15246     15245     15248     15250     15246     15245     15248     15251
     15247     15245     15248     15249     15247     15245     15248     15250
     15247     15245     15248     15251     15248     15251     15254     15255
     15248     15251     15254     15256     15248     15251     15254     15257
     15249     15248     15251     15252     15249     15248     15251     15253
     15249     15248     15251     15254     15250     15248     15251     15252
     15250     15248     15251     15253     15250     15248     15251     15254
     15251     15254     15257     15258     15251     15254     15257     15259
     15251     15254     15257     15260     15252     15251     15254     15255
     15252     15251     15254     15256     15252     15251     15254     15257
     15253     15251     15254     15255     15253     15251     15254     15256
     15253     15251     15254     15257     15254     15257     15260     15261
     15254     15257     15260     15262     15254     15257     15260     15263
     15255     15254     15257     15258     15255     15254     15257     15259
     15255     15254     15257     15260     15256     15254     15257     15258
     15256     15254     15257     15259     15256     15254     15257     15260
     15257     15260     15263     15264     15257     15260     15263     15265
     15257     15260     15263     15266     15258     15257     15260     15261
     15258     15257     15260     15262     15258     15257     15260     15263
     15259     15257     15260     15261     15259     15257     15260     15262
     15259     15257     15260     15263     15260     15263     15266     15267
     15260     15263     15266     15268     15260     15263     15266     15269
     15261     15260     15263     15264     15261     15260     15263     15265
     15261     15260     15263     15266     15262     15260     15263     15264
     15262     15260     15263     15265     15262     15260     15263     15266
     15263     15266     15269     15270     15263     15266     15269     15271
     15263     15266     15269     15272     15264     15263     15266     15267
     15264     15263     15266     15268     15264     15263     15266     15269
     15265     15263     15266     15267     15265     15263     15266     15268
     15265     15263     15266     15269     15266     15269     15272     15273
     15266     15269     15272     15274     15266     15269     15272     15275
     15267     15266     15269     15270     15267     15266     15269     15271
     15267     15266     15269     15272     15268     15266     15269     15270
     15268     15266     15269     15271     15268     15266     15269     15272
     15269     15272     15275     15276     15269     15272     15275     15277
     15269     15272     15275     15278     15270     15269     15272     15273
     15270     15269     15272     15274     15270     15269     15272     15275
     15271     15269     15272     15273     15271     15269     15272     15274
     15271     15269     15272     15275     15273     15272     15275     15276
     15273     15272     15275     15277     15273     15272     15275     15278
     15274     15272     15275     15276     15274     15272     15275     15277
     15274     15272     15275     15278     15279     15281     15284     15285
     15279     15281     15284     15286     15279     15281     15284     15287
     15280     15279     15281     15282     15280     15279     15281     15283
     15280     15279     15281     15284     15281     15284     15287     15288
     15281     15284     15287     15289     15281     15284     15287     15290
     15282     15281     15284     15285     15282     15281     15284     15286
     15282     15281     15284     15287     15283     15281     15284     15285
     15283     15281     15284     15286     15283     15281     15284     15287
     15284     15287     15290     15291     15284     15287     15290     15292
     15284     15287     15290     15293     15285     15284     15287     15288
     15285     15284     15287     15289     15285     15284     15287     15290
     15286     15284     15287     15288     15286     15284     15287     15289
     15286     15284     15287     15290     15287     15290     15293     15294
     15287     15290     15293     15295     15287     15290     15293     15296
     15288     15287     15290     15291     15288     15287     15290     15292
     15288     15287     15290     15293     15289     15287     15290     15291
     15289     15287     15290     15292     15289     15287     15290     15293
     15290     15293     15296     15297     15290     15293     15296     15298
     15290     15293     15296     15299     15291     15290     15293     15294
     15291     15290     15293     15295     15291     15290     15293     15296
     15292     15290     15293     15294     15292     15290     15293     15295
     15292     15290     15293     15296     15293     15296     15299     15300
     15293     15296     15299     15301     15293     15296     15299     15302
     15294     15293     15296     15297     15294     15293     15296     15298
     15294     15293     15296     15299     15295     15293     15296     15297
     15295     15293     15296     15298     15295     15293     15296     15299
     15296     15299     15302     15303     15296     15299     15302     15304
     15296     15299     15302     15305     15297     15296     15299     15300
     15297     15296     15299     15301     15297     15296     15299     15302
     15298     15296     15299     15300     15298     15296     15299     15301
     15298     15296     15299     15302     15299     15302     15305     15306
     15299     15302     15305     15307     15299     15302     15305     15308
     15300     15299     15302     15303     15300     15299     15302     15304
     15300     15299     15302     15305     15301     15299     15302     15303
     15301     15299     15302     15304     15301     15299     15302     15305
     15302     15305     15308     15309     15302     15305     15308     15310
     15302     15305     15308     15311     15303     15302     15305     15306
     15303     15302     15305     15307     15303     15302     15305     15308
     15304     15302     15305     15306     15304     15302     15305     15307
     15304     15302     15305     15308     15305     15308     15311     15312
     15305     15308     15311     15313     15305     15308     15311     15314
     15306     15305     15308     15309     15306     15305     15308     15310
     15306     15305     15308     15311     15307     15305     15308     15309
     15307     15305     15308     15310     15307     15305     15308     15311
     15308     15311     15314     15315     15308     15311     15314     15316
     15308     15311     15314     15317     15309     15308     15311     15312
     15309     15308     15311     15313     15309     15308     15311     15314
     15310     15308     15311     15312     15310     15308     15311     15313
     15310     15308     15311     15314     15311     15314     15317     15318
     15311     15314     15317     15319     15311     15314     15317     15320
     15312     15311     15314     15315     15312     15311     15314     15316
     15312     15311     15314     15317     15313     15311     15314     15315
     15313     15311     15314     15316     15313     15311     15314     15317
     15314     15317     15320     15321     15314     15317     15320     15322
     15314     15317     15320     15323     15315     15314     15317     15318
     15315     15314     15317     15319     15315     15314     15317     15320
     15316     15314     15317     15318     15316     15314     15317     15319
     15316     15314     15317     15320     15317     15320     15323     15324
     15317     15320     15323     15325     15317     15320     15323     15326
     15318     15317     15320     15321     15318     15317     15320     15322
     15318     15317     15320     15323     15319     15317     15320     15321
     15319     15317     15320     15322     15319     15317     15320     15323
     15320     15323     15326     15327     15320     15323     15326     15328
     15320     15323     15326     15329     15321     15320     15323     15324
     15321     15320     15323     15325     15321     15320     15323     15326
     15322     15320     15323     15324     15322     15320     15323     15325
     15322     15320     15323     15326     15323     15326     15329     15330
     15323     15326     15329     15331     15323     15326     15329     15332
     15324     15323     15326     15327     15324     15323     15326     15328
     15324     15323     15326     15329     15325     15323     15326     15327
     15325     15323     15326     15328     15325     15323     15326     15329
     15326     15329     15332     15333     15326     15329     15332     15334
     15326     15329     15332     15335     15327     15326     15329     15330
     15327     15326     15329     15331     15327     15326     15329     15332
     15328     15326     15329     15330     15328     15326     15329     15331
     15328     15326     15329     15332     15329     15332     15335     15336
     15329     15332     15335     15337     15329     15332     15335     15338
     15330     15329     15332     15333     15330     15329     15332     15334
     15330     15329     15332     15335     15331     15329     15332     15333
     15331     15329     15332     15334     15331     15329     15332     15335
     15332     15335     15338     15339     15332     15335     15338     15340
     15332     15335     15338     15341     15333     15332     15335     15336
     15333     15332     15335     15337     15333     15332     15335     15338
     15334     15332     15335     15336     15334     15332     15335     15337
     15334     15332     15335     15338     15335     15338     15341     15342
     15335     15338     15341     15343     15335     15338     15341     15344
     15336     15335     15338     15339     15336     15335     15338     15340
     15336     15335     15338     15341     15337     15335     15338     15339
     15337     15335     15338     15340     15337     15335     15338     15341
     15338     15341     15344     15345     15338     15341     15344     15346
     15338     15341     15344     15347     15339     15338     15341     15342
     15339     15338     15341     15343     15339     15338     15341     15344
     15340     15338     15341     15342     15340     15338     15341     15343
     15340     15338     15341     15344     15342     15341     15344     15345
     15342     15341     15344     15346     15342     15341     15344     15347
     15343     15341     15344     15345     15343     15341     15344     15346
     15343     15341     15344     15347     15348     15349     15364     15365
     15348     15349     15364     15366     15348     15349     15364     15370
     15349     15348     15352     15353     15349     15348     15352     15354
     15349     15348     15352     15355     15349     15348     15356     15357
     15349     15348     15356     15358     15349     15348     15356     15359
     15349     15348     15360     15361     15349     15348     15360     15362
     15349     15348     15360     15363     15349     15364     15370     15367
     15350     15349     15348     15352     15350     15349     15348     15356
     15350     15349     15348     15360     15350     15349     15364     15365
     15350     15349     15364     15366     15350     15349     15364     15370
     15351     15349     15348     15352     15351     15349     15348     15356
     15351     15349     15348     15360     15351     15349     15364     15365
     15351     15349     15364     15366     15351     15349     15364     15370
     15352     15348     15349     15364     15352     15348     15356     15357
     15352     15348     15356     15358     15352     15348     15356     15359
     15352     15348     15360     15361     15352     15348     15360     15362
     15352     15348     15360     15363     15353     15352     15348     15356
     15353     15352     15348     15360     15354     15352     15348     15356
     15354     15352     15348     15360     15355     15352     15348     15356
     15355     15352     15348     15360     15356     15348     15349     15364
     15356     15348     15360     15361     15356     15348     15360     15362
     15356     15348     15360     15363     15357     15356     15348     15360
     15358     15356     15348     15360     15359     15356     15348     15360
     15360     15348     15349     15364     15364     15370     15367     15368
     15364     15370     15367     15369     15364     15370     15367     15371
     15365     15364     15370     15367     15366     15364     15370     15367
     15367     15371     15372     15373     15367     15371     15372     15374
     15367     15371     15372     15375     15368     15367     15371     15372
     15369     15367     15371     15372     15370     15367     15371     15372
     15371     15372     15375     15376     15371     15372     15375     15377
     15371     15372     15375     15383     15372     15375     15377     15378
     15372     15375     15383     15384     15372     15375     15383     15385
     15372     15375     15383     15386     15373     15372     15375     15376
     15373     15372     15375     15377     15373     15372     15375     15383
     15374     15372     15375     15376     15374     15372     15375     15377
     15374     15372     15375     15383     15375     15377     15378     15379
     15375     15377     15378     15380     15375     15383     15386     15387
     15376     15375     15377     15378     15376     15375     15383     15384
     15376     15375     15383     15385     15376     15375     15383     15386
     15377     15375     15383     15384     15377     15375     15383     15385
     15377     15375     15383     15386     15377     15378     15380     15381
     15377     15378     15380     15382     15377     15378     15380     15392
     15378     15377     15375     15383     15378     15380     15392     15393
     15378     15380     15392     15394     15378     15380     15392     15395
     15379     15378     15380     15381     15379     15378     15380     15382
     15379     15378     15380     15392     15380     15392     15395     15396
     15380     15392     15395     15397     15380     15392     15395     15398
     15381     15380     15392     15393     15381     15380     15392     15394
     15381     15380     15392     15395     15382     15380     15392     15393
     15382     15380     15392     15394     15382     15380     15392     15395
     15383     15386     15387     15388     15383     15386     15387     15389
     15384     15383     15386     15387     15385     15383     15386     15387
     15386     15387     15389     15390     15386     15387     15389     15391
     15386     15387     15389     15439     15387     15389     15439     15440
     15387     15389     15439     15441     15387     15389     15439     15442
     15388     15387     15389     15390     15388     15387     15389     15391
     15388     15387     15389     15439     15389     15439     15442     15443
     15389     15439     15442     15444     15389     15439     15442     15445
     15390     15389     15439     15440     15390     15389     15439     15441
     15390     15389     15439     15442     15391     15389     15439     15440
     15391     15389     15439     15441     15391     15389     15439     15442
     15392     15395     15398     15399     15392     15395     15398     15400
     15392     15395     15398     15401     15393     15392     15395     15396
     15393     15392     15395     15397     15393     15392     15395     15398
     15394     15392     15395     15396     15394     15392     15395     15397
     15394     15392     15395     15398     15395     15398     15401     15402
     15395     15398     15401     15403     15395     15398     15401     15404
     15396     15395     15398     15399     15396     15395     15398     15400
     15396     15395     15398     15401     15397     15395     15398     15399
     15397     15395     15398     15400     15397     15395     15398     15401
     15398     15401     15404     15405     15398     15401     15404     15406
     15398     15401     15404     15407     15399     15398     15401     15402
     15399     15398     15401     15403     15399     15398     15401     15404
     15400     15398     15401     15402     15400     15398     15401     15403
     15400     15398     15401     15404     15401     15404     15407     15408
     15401     15404     15407     15409     15401     15404     15407     15410
     15402     15401     15404     15405     15402     15401     15404     15406
     15402     15401     15404     15407     15403     15401     15404     15405
     15403     15401     15404     15406     15403     15401     15404     15407
     15404     15407     15410     15411     15404     15407     15410     15412
     15405     15404     15407     15408     15405     15404     15407     15409
     15405     15404     15407     15410     15406     15404     15407     15408
     15406     15404     15407     15409     15406     15404     15407     15410
     15407     15410     15412     15413     15407     15410     15412     15414
     15408     15407     15410     15411     15408     15407     15410     15412
     15409     15407     15410     15411     15409     15407     15410     15412
     15410     15412     15414     15415     15410     15412     15414     15416
     15410     15412     15414     15417     15411     15410     15412     15413
     15411     15410     15412     15414     15412     15414     15417     15418
     15412     15414     15417     15419     15412     15414     15417     15420
     15413     15412     15414     15415     15413     15412     15414     15416
     15413     15412     15414     15417     15414     15417     15420     15421
     15414     15417     15420     15422     15414     15417     15420     15423
     15415     15414     15417     15418     15415     15414     15417     15419
     15415     15414     15417     15420     15416     15414     15417     15418
     15416     15414     15417     15419     15416     15414     15417     15420
     15417     15420     15423     15424     15417     15420     15423     15425
     15417     15420     15423     15426     15418     15417     15420     15421
     15418     15417     15420     15422     15418     15417     15420     15423
     15419     15417     15420     15421     15419     15417     15420     15422
     15419     15417     15420     15423     15420     15423     15426     15427
     15420     15423     15426     15428     15420     15423     15426     15429
     15421     15420     15423     15424     15421     15420     15423     15425
     15421     15420     15423     15426     15422     15420     15423     15424
     15422     15420     15423     15425     15422     15420     15423     15426
     15423     15426     15429     15430     15423     15426     15429     15431
     15423     15426     15429     15432     15424     15423     15426     15427
     15424     15423     15426     15428     15424     15423     15426     15429
     15425     15423     15426     15427     15425     15423     15426     15428
     15425     15423     15426     15429     15426     15429     15432     15433
     15426     15429     15432     15434     15426     15429     15432     15435
     15427     15426     15429     15430     15427     15426     15429     15431
     15427     15426     15429     15432     15428     15426     15429     15430
     15428     15426     15429     15431     15428     15426     15429     15432
     15429     15432     15435     15436     15429     15432     15435     15437
     15429     15432     15435     15438     15430     15429     15432     15433
     15430     15429     15432     15434     15430     15429     15432     15435
     15431     15429     15432     15433     15431     15429     15432     15434
     15431     15429     15432     15435     15433     15432     15435     15436
     15433     15432     15435     15437     15433     15432     15435     15438
     15434     15432     15435     15436     15434     15432     15435     15437
     15434     15432     15435     15438     15439     15442     15445     15446
     15439     15442     15445     15447     15439     15442     15445     15448
     15440     15439     15442     15443     15440     15439     15442     15444
     15440     15439     15442     15445     15441     15439     15442     15443
     15441     15439     15442     15444     15441     15439     15442     15445
     15442     15445     15448     15449     15442     15445     15448     15450
     15442     15445     15448     15451     15443     15442     15445     15446
     15443     15442     15445     15447     15443     15442     15445     15448
     15444     15442     15445     15446     15444     15442     15445     15447
     15444     15442     15445     15448     15445     15448     15451     15452
     15445     15448     15451     15453     15445     15448     15451     15454
     15446     15445     15448     15449     15446     15445     15448     15450
     15446     15445     15448     15451     15447     15445     15448     15449
     15447     15445     15448     15450     15447     15445     15448     15451
     15448     15451     15454     15455     15448     15451     15454     15456
     15448     15451     15454     15457     15449     15448     15451     15452
     15449     15448     15451     15453     15449     15448     15451     15454
     15450     15448     15451     15452     15450     15448     15451     15453
     15450     15448     15451     15454     15451     15454     15457     15458
     15451     15454     15457     15459     15452     15451     15454     15455
     15452     15451     15454     15456     15452     15451     15454     15457
     15453     15451     15454     15455     15453     15451     15454     15456
     15453     15451     15454     15457     15454     15457     15459     15460
     15454     15457     15459     15461     15455     15454     15457     15458
     15455     15454     15457     15459     15456     15454     15457     15458
     15456     15454     15457     15459     15457     15459     15461     15462
     15457     15459     15461     15463     15457     15459     15461     15464
     15458     15457     15459     15460     15458     15457     15459     15461
     15459     15461     15464     15465     15459     15461     15464     15466
     15459     15461     15464     15467     15460     15459     15461     15462
     15460     15459     15461     15463     15460     15459     15461     15464
     15461     15464     15467     15468     15461     15464     15467     15469
     15461     15464     15467     15470     15462     15461     15464     15465
     15462     15461     15464     15466     15462     15461     15464     15467
     15463     15461     15464     15465     15463     15461     15464     15466
     15463     15461     15464     15467     15464     15467     15470     15471
     15464     15467     15470     15472     15464     15467     15470     15473
     15465     15464     15467     15468     15465     15464     15467     15469
     15465     15464     15467     15470     15466     15464     15467     15468
     15466     15464     15467     15469     15466     15464     15467     15470
     15467     15470     15473     15474     15467     15470     15473     15475
     15467     15470     15473     15476     15468     15467     15470     15471
     15468     15467     15470     15472     15468     15467     15470     15473
     15469     15467     15470     15471     15469     15467     15470     15472
     15469     15467     15470     15473     15470     15473     15476     15477
     15470     15473     15476     15478     15470     15473     15476     15479
     15471     15470     15473     15474     15471     15470     15473     15475
     15471     15470     15473     15476     15472     15470     15473     15474
     15472     15470     15473     15475     15472     15470     15473     15476
     15473     15476     15479     15480     15473     15476     15479     15481
     15473     15476     15479     15482     15474     15473     15476     15477
     15474     15473     15476     15478     15474     15473     15476     15479
     15475     15473     15476     15477     15475     15473     15476     15478
     15475     15473     15476     15479     15476     15479     15482     15483
     15476     15479     15482     15484     15476     15479     15482     15485
     15477     15476     15479     15480     15477     15476     15479     15481
     15477     15476     15479     15482     15478     15476     15479     15480
     15478     15476     15479     15481     15478     15476     15479     15482
     15480     15479     15482     15483     15480     15479     15482     15484
     15480     15479     15482     15485     15481     15479     15482     15483
     15481     15479     15482     15484     15481     15479     15482     15485
     15486     15490     15493     15494     15486     15490     15493     15495
     15486     15490     15493     15500     15487     15486     15490     15491
     15487     15486     15490     15492     15487     15486     15490     15493
     15488     15486     15490     15491     15488     15486     15490     15492
     15488     15486     15490     15493     15489     15486     15490     15491
     15489     15486     15490     15492     15489     15486     15490     15493
     15490     15493     15500     15496     15491     15490     15493     15494
     15491     15490     15493     15495     15491     15490     15493     15500
     15492     15490     15493     15494     15492     15490     15493     15495
     15492     15490     15493     15500     15493     15500     15496     15497
     15493     15500     15496     15498     15493     15500     15496     15499
     15494     15493     15500     15496     15495     15493     15500     15496
     15496     15499     15501     15502     15496     15499     15501     15503
     15496     15499     15501     15504     15497     15496     15499     15501
     15498     15496     15499     15501     15499     15501     15504     15505
     15499     15501     15504     15506     15499     15501     15504     15512
     15500     15496     15499     15501     15501     15504     15506     15507
     15501     15504     15512     15513     15501     15504     15512     15514
     15501     15504     15512     15515     15502     15501     15504     15505
     15502     15501     15504     15506     15502     15501     15504     15512
     15503     15501     15504     15505     15503     15501     15504     15506
     15503     15501     15504     15512     15504     15506     15507     15508
     15504     15506     15507     15509     15504     15512     15515     15516
     15505     15504     15506     15507     15505     15504     15512     15513
     15505     15504     15512     15514     15505     15504     15512     15515
     15506     15504     15512     15513     15506     15504     15512     15514
     15506     15504     15512     15515     15506     15507     15509     15510
     15506     15507     15509     15511     15506     15507     15509     15521
     15507     15506     15504     15512     15507     15509     15521     15522
     15507     15509     15521     15523     15507     15509     15521     15524
     15508     15507     15509     15510     15508     15507     15509     15511
     15508     15507     15509     15521     15509     15521     15524     15525
     15509     15521     15524     15526     15509     15521     15524     15527
     15510     15509     15521     15522     15510     15509     15521     15523
     15510     15509     15521     15524     15511     15509     15521     15522
     15511     15509     15521     15523     15511     15509     15521     15524
     15512     15515     15516     15517     15512     15515     15516     15518
     15513     15512     15515     15516     15514     15512     15515     15516
     15515     15516     15518     15519     15515     15516     15518     15520
     15515     15516     15518     15568     15516     15518     15568     15569
     15516     15518     15568     15570     15516     15518     15568     15571
     15517     15516     15518     15519     15517     15516     15518     15520
     15517     15516     15518     15568     15518     15568     15571     15572
     15518     15568     15571     15573     15518     15568     15571     15574
     15519     15518     15568     15569     15519     15518     15568     15570
     15519     15518     15568     15571     15520     15518     15568     15569
     15520     15518     15568     15570     15520     15518     15568     15571
     15521     15524     15527     15528     15521     15524     15527     15529
     15521     15524     15527     15530     15522     15521     15524     15525
     15522     15521     15524     15526     15522     15521     15524     15527
     15523     15521     15524     15525     15523     15521     15524     15526
     15523     15521     15524     15527     15524     15527     15530     15531
     15524     15527     15530     15532     15524     15527     15530     15533
     15525     15524     15527     15528     15525     15524     15527     15529
     15525     15524     15527     15530     15526     15524     15527     15528
     15526     15524     15527     15529     15526     15524     15527     15530
     15527     15530     15533     15534     15527     15530     15533     15535
     15527     15530     15533     15536     15528     15527     15530     15531
     15528     15527     15530     15532     15528     15527     15530     15533
     15529     15527     15530     15531     15529     15527     15530     15532
     15529     15527     15530     15533     15530     15533     15536     15537
     15530     15533     15536     15538     15530     15533     15536     15539
     15531     15530     15533     15534     15531     15530     15533     15535
     15531     15530     15533     15536     15532     15530     15533     15534
     15532     15530     15533     15535     15532     15530     15533     15536
     15533     15536     15539     15540     15533     15536     15539     15541
     15534     15533     15536     15537     15534     15533     15536     15538
     15534     15533     15536     15539     15535     15533     15536     15537
     15535     15533     15536     15538     15535     15533     15536     15539
     15536     15539     15541     15542     15536     15539     15541     15543
     15537     15536     15539     15540     15537     15536     15539     15541
     15538     15536     15539     15540     15538     15536     15539     15541
     15539     15541     15543     15544     15539     15541     15543     15545
     15539     15541     15543     15546     15540     15539     15541     15542
     15540     15539     15541     15543     15541     15543     15546     15547
     15541     15543     15546     15548     15541     15543     15546     15549
     15542     15541     15543     15544     15542     15541     15543     15545
     15542     15541     15543     15546     15543     15546     15549     15550
     15543     15546     15549     15551     15543     15546     15549     15552
     15544     15543     15546     15547     15544     15543     15546     15548
     15544     15543     15546     15549     15545     15543     15546     15547
     15545     15543     15546     15548     15545     15543     15546     15549
     15546     15549     15552     15553     15546     15549     15552     15554
     15546     15549     15552     15555     15547     15546     15549     15550
     15547     15546     15549     15551     15547     15546     15549     15552
     15548     15546     15549     15550     15548     15546     15549     15551
     15548     15546     15549     15552     15549     15552     15555     15556
     15549     15552     15555     15557     15549     15552     15555     15558
     15550     15549     15552     15553     15550     15549     15552     15554
     15550     15549     15552     15555     15551     15549     15552     15553
     15551     15549     15552     15554     15551     15549     15552     15555
     15552     15555     15558     15559     15552     15555     15558     15560
     15552     15555     15558     15561     15553     15552     15555     15556
     15553     15552     15555     15557     15553     15552     15555     15558
     15554     15552     15555     15556     15554     15552     15555     15557
     15554     15552     15555     15558     15555     15558     15561     15562
     15555     15558     15561     15563     15555     15558     15561     15564
     15556     15555     15558     15559     15556     15555     15558     15560
     15556     15555     15558     15561     15557     15555     15558     15559
     15557     15555     15558     15560     15557     15555     15558     15561
     15558     15561     15564     15565     15558     15561     15564     15566
     15558     15561     15564     15567     15559     15558     15561     15562
     15559     15558     15561     15563     15559     15558     15561     15564
     15560     15558     15561     15562     15560     15558     15561     15563
     15560     15558     15561     15564     15562     15561     15564     15565
     15562     15561     15564     15566     15562     15561     15564     15567
     15563     15561     15564     15565     15563     15561     15564     15566
     15563     15561     15564     15567     15568     15571     15574     15575
     15568     15571     15574     15576     15568     15571     15574     15577
     15569     15568     15571     15572     15569     15568     15571     15573
     15569     15568     15571     15574     15570     15568     15571     15572
     15570     15568     15571     15573     15570     15568     15571     15574
     15571     15574     15577     15578     15571     15574     15577     15579
     15571     15574     15577     15580     15572     15571     15574     15575
     15572     15571     15574     15576     15572     15571     15574     15577
     15573     15571     15574     15575     15573     15571     15574     15576
     15573     15571     15574     15577     15574     15577     15580     15581
     15574     15577     15580     15582     15574     15577     15580     15583
     15575     15574     15577     15578     15575     15574     15577     15579
     15575     15574     15577     15580     15576     15574     15577     15578
     15576     15574     15577     15579     15576     15574     15577     15580
     15577     15580     15583     15584     15577     15580     15583     15585
     15577     15580     15583     15586     15578     15577     15580     15581
     15578     15577     15580     15582     15578     15577     15580     15583
     15579     15577     15580     15581     15579     15577     15580     15582
     15579     15577     15580     15583     15580     15583     15586     15587
     15580     15583     15586     15588     15581     15580     15583     15584
     15581     15580     15583     15585     15581     15580     15583     15586
     15582     15580     15583     15584     15582     15580     15583     15585
     15582     15580     15583     15586     15583     15586     15588     15589
     15583     15586     15588     15590     15584     15583     15586     15587
     15584     15583     15586     15588     15585     15583     15586     15587
     15585     15583     15586     15588     15586     15588     15590     15591
     15586     15588     15590     15592     15586     15588     15590     15593
     15587     15586     15588     15589     15587     15586     15588     15590
     15588     15590     15593     15594     15588     15590     15593     15595
     15588     15590     15593     15596     15589     15588     15590     15591
     15589     15588     15590     15592     15589     15588     15590     15593
     15590     15593     15596     15597     15590     15593     15596     15598
     15590     15593     15596     15599     15591     15590     15593     15594
     15591     15590     15593     15595     15591     15590     15593     15596
     15592     15590     15593     15594     15592     15590     15593     15595
     15592     15590     15593     15596     15593     15596     15599     15600
     15593     15596     15599     15601     15593     15596     15599     15602
     15594     15593     15596     15597     15594     15593     15596     15598
     15594     15593     15596     15599     15595     15593     15596     15597
     15595     15593     15596     15598     15595     15593     15596     15599
     15596     15599     15602     15603     15596     15599     15602     15604
     15596     15599     15602     15605     15597     15596     15599     15600
     15597     15596     15599     15601     15597     15596     15599     15602
     15598     15596     15599     15600     15598     15596     15599     15601
     15598     15596     15599     15602     15599     15602     15605     15606
     15599     15602     15605     15607     15599     15602     15605     15608
     15600     15599     15602     15603     15600     15599     15602     15604
     15600     15599     15602     15605     15601     15599     15602     15603
     15601     15599     15602     15604     15601     15599     15602     15605
     15602     15605     15608     15609     15602     15605     15608     15610
     15602     15605     15608     15611     15603     15602     15605     15606
     15603     15602     15605     15607     15603     15602     15605     15608
     15604     15602     15605     15606     15604     15602     15605     15607
     15604     15602     15605     15608     15605     15608     15611     15612
     15605     15608     15611     15613     15605     15608     15611     15614
     15606     15605     15608     15609     15606     15605     15608     15610
     15606     15605     15608     15611     15607     15605     15608     15609
     15607     15605     15608     15610     15607     15605     15608     15611
     15609     15608     15611     15612     15609     15608     15611     15613
     15609     15608     15611     15614     15610     15608     15611     15612
     15610     15608     15611     15613     15610     15608     15611     15614
     15615     15628     15631     15632     15615     15628     15631     15633
     15615     15628     15631     15638     15616     15615     15620     15621
     15616     15615     15620     15622     15616     15615     15620     15623
     15616     15615     15624     15625     15616     15615     15624     15626
     15616     15615     15624     15627     15616     15615     15628     15629
     15616     15615     15628     15630     15616     15615     15628     15631
     15617     15616     15615     15620     15617     15616     15615     15624
     15617     15616     15615     15628     15618     15616     15615     15620
     15618     15616     15615     15624     15618     15616     15615     15628
     15619     15616     15615     15620     15619     15616     15615     15624
     15619     15616     15615     15628     15620     15615     15624     15625
     15620     15615     15624     15626     15620     15615     15624     15627
     15620     15615     15628     15629     15620     15615     15628     15630
     15620     15615     15628     15631     15621     15620     15615     15624
     15621     15620     15615     15628     15622     15620     15615     15624
     15622     15620     15615     15628     15623     15620     15615     15624
     15623     15620     15615     15628     15624     15615     15628     15629
     15624     15615     15628     15630     15624     15615     15628     15631
     15625     15624     15615     15628     15626     15624     15615     15628
     15627     15624     15615     15628     15628     15631     15638     15634
     15629     15628     15631     15632     15629     15628     15631     15633
     15629     15628     15631     15638     15630     15628     15631     15632
     15630     15628     15631     15633     15630     15628     15631     15638
     15631     15638     15634     15635     15631     15638     15634     15636
     15631     15638     15634     15637     15632     15631     15638     15634
     15633     15631     15638     15634     15634     15637     15639     15640
     15634     15637     15639     15641     15634     15637     15639     15644
     15635     15634     15637     15639     15636     15634     15637     15639
     15637     15639     15644     15642     15637     15639     15644     15645
     15637     15639     15644     15646     15638     15634     15637     15639
     15639     15644     15642     15643     15639     15644     15642     15694
     15639     15644     15646     15647     15639     15644     15646     15648
     15639     15644     15646     15650     15640     15639     15644     15642
     15640     15639     15644     15645     15640     15639     15644     15646
     15641     15639     15644     15642     15641     15639     15644     15645
     15641     15639     15644     15646     15642     15644     15646     15647
     15642     15644     15646     15648     15642     15644     15646     15650
     15642     15694     15696     15697     15642     15694     15696     15698
     15642     15694     15696     15699     15643     15642     15644     15645
     15643     15642     15644     15646     15643     15642     15694     15695
     15643     15642     15694     15696     15644     15642     15694     15695
     15644     15642     15694     15696     15644     15646     15648     15649
     15644     15646     15650     15651     15644     15646     15650     15652
     15645     15644     15642     15694     15645     15644     15646     15647
     15645     15644     15646     15648     15645     15644     15646     15650
     15646     15644     15642     15694     15646     15650     15652     15653
     15646     15650     15652     15654     15647     15646     15648     15649
     15647     15646     15650     15651     15647     15646     15650     15652
     15648     15646     15650     15651     15648     15646     15650     15652
     15649     15648     15646     15650     15650     15652     15654     15655
     15650     15652     15654     15656     15650     15652     15654     15657
     15651     15650     15652     15653     15651     15650     15652     15654
     15652     15654     15657     15658     15652     15654     15657     15659
     15652     15654     15657     15660     15653     15652     15654     15655
     15653     15652     15654     15656     15653     15652     15654     15657
     15654     15657     15660     15661     15654     15657     15660     15662
     15654     15657     15660     15663     15655     15654     15657     15658
     15655     15654     15657     15659     15655     15654     15657     15660
     15656     15654     15657     15658     15656     15654     15657     15659
     15656     15654     15657     15660     15657     15660     15663     15664
     15657     15660     15663     15665     15657     15660     15663     15666
     15658     15657     15660     15661     15658     15657     15660     15662
     15658     15657     15660     15663     15659     15657     15660     15661
     15659     15657     15660     15662     15659     15657     15660     15663
     15660     15663     15666     15667     15660     15663     15666     15668
     15660     15663     15666     15669     15661     15660     15663     15664
     15661     15660     15663     15665     15661     15660     15663     15666
     15662     15660     15663     15664     15662     15660     15663     15665
     15662     15660     15663     15666     15663     15666     15669     15670
     15663     15666     15669     15671     15663     15666     15669     15672
     15664     15663     15666     15667     15664     15663     15666     15668
     15664     15663     15666     15669     15665     15663     15666     15667
     15665     15663     15666     15668     15665     15663     15666     15669
     15666     15669     15672     15673     15666     15669     15672     15674
     15666     15669     15672     15675     15667     15666     15669     15670
     15667     15666     15669     15671     15667     15666     15669     15672
     15668     15666     15669     15670     15668     15666     15669     15671
     15668     15666     15669     15672     15669     15672     15675     15676
     15669     15672     15675     15677     15669     15672     15675     15678
     15670     15669     15672     15673     15670     15669     15672     15674
     15670     15669     15672     15675     15671     15669     15672     15673
     15671     15669     15672     15674     15671     15669     15672     15675
     15672     15675     15678     15679     15672     15675     15678     15680
     15672     15675     15678     15681     15673     15672     15675     15676
     15673     15672     15675     15677     15673     15672     15675     15678
     15674     15672     15675     15676     15674     15672     15675     15677
     15674     15672     15675     15678     15675     15678     15681     15682
     15675     15678     15681     15683     15675     15678     15681     15684
     15676     15675     15678     15679     15676     15675     15678     15680
     15676     15675     15678     15681     15677     15675     15678     15679
     15677     15675     15678     15680     15677     15675     15678     15681
     15678     15681     15684     15685     15678     15681     15684     15686
     15678     15681     15684     15687     15679     15678     15681     15682
     15679     15678     15681     15683     15679     15678     15681     15684
     15680     15678     15681     15682     15680     15678     15681     15683
     15680     15678     15681     15684     15681     15684     15687     15688
     15681     15684     15687     15689     15681     15684     15687     15690
     15682     15681     15684     15685     15682     15681     15684     15686
     15682     15681     15684     15687     15683     15681     15684     15685
     15683     15681     15684     15686     15683     15681     15684     15687
     15684     15687     15690     15691     15684     15687     15690     15692
     15684     15687     15690     15693     15685     15684     15687     15688
     15685     15684     15687     15689     15685     15684     15687     15690
     15686     15684     15687     15688     15686     15684     15687     15689
     15686     15684     15687     15690     15688     15687     15690     15691
     15688     15687     15690     15692     15688     15687     15690     15693
     15689     15687     15690     15691     15689     15687     15690     15692
     15689     15687     15690     15693     15694     15696     15699     15700
     15694     15696     15699     15701     15694     15696     15699     15702
     15695     15694     15696     15697     15695     15694     15696     15698
     15695     15694     15696     15699     15696     15699     15702     15703
     15696     15699     15702     15704     15696     15699     15702     15705
     15697     15696     15699     15700     15697     15696     15699     15701
     15697     15696     15699     15702     15698     15696     15699     15700
     15698     15696     15699     15701     15698     15696     15699     15702
     15699     15702     15705     15706     15699     15702     15705     15707
     15699     15702     15705     15708     15700     15699     15702     15703
     15700     15699     15702     15704     15700     15699     15702     15705
     15701     15699     15702     15703     15701     15699     15702     15704
     15701     15699     15702     15705     15702     15705     15708     15709
     15702     15705     15708     15710     15702     15705     15708     15711
     15703     15702     15705     15706     15703     15702     15705     15707
     15703     15702     15705     15708     15704     15702     15705     15706
     15704     15702     15705     15707     15704     15702     15705     15708
     15705     15708     15711     15712     15705     15708     15711     15713
     15705     15708     15711     15714     15706     15705     15708     15709
     15706     15705     15708     15710     15706     15705     15708     15711
     15707     15705     15708     15709     15707     15705     15708     15710
     15707     15705     15708     15711     15708     15711     15714     15715
     15708     15711     15714     15716     15708     15711     15714     15717
     15709     15708     15711     15712     15709     15708     15711     15713
     15709     15708     15711     15714     15710     15708     15711     15712
     15710     15708     15711     15713     15710     15708     15711     15714
     15711     15714     15717     15718     15711     15714     15717     15719
     15711     15714     15717     15720     15712     15711     15714     15715
     15712     15711     15714     15716     15712     15711     15714     15717
     15713     15711     15714     15715     15713     15711     15714     15716
     15713     15711     15714     15717     15714     15717     15720     15721
     15714     15717     15720     15722     15714     15717     15720     15723
     15715     15714     15717     15718     15715     15714     15717     15719
     15715     15714     15717     15720     15716     15714     15717     15718
     15716     15714     15717     15719     15716     15714     15717     15720
     15717     15720     15723     15724     15717     15720     15723     15725
     15717     15720     15723     15726     15718     15717     15720     15721
     15718     15717     15720     15722     15718     15717     15720     15723
     15719     15717     15720     15721     15719     15717     15720     15722
     15719     15717     15720     15723     15720     15723     15726     15727
     15720     15723     15726     15728     15720     15723     15726     15729
     15721     15720     15723     15724     15721     15720     15723     15725
     15721     15720     15723     15726     15722     15720     15723     15724
     15722     15720     15723     15725     15722     15720     15723     15726
     15723     15726     15729     15730     15723     15726     15729     15731
     15723     15726     15729     15732     15724     15723     15726     15727
     15724     15723     15726     15728     15724     15723     15726     15729
     15725     15723     15726     15727     15725     15723     15726     15728
     15725     15723     15726     15729     15726     15729     15732     15733
     15726     15729     15732     15734     15726     15729     15732     15735
     15727     15726     15729     15730     15727     15726     15729     15731
     15727     15726     15729     15732     15728     15726     15729     15730
     15728     15726     15729     15731     15728     15726     15729     15732
     15729     15732     15735     15736     15729     15732     15735     15737
     15729     15732     15735     15738     15730     15729     15732     15733
     15730     15729     15732     15734     15730     15729     15732     15735
     15731     15729     15732     15733     15731     15729     15732     15734
     15731     15729     15732     15735     15732     15735     15738     15739
     15732     15735     15738     15740     15732     15735     15738     15741
     15733     15732     15735     15736     15733     15732     15735     15737
     15733     15732     15735     15738     15734     15732     15735     15736
     15734     15732     15735     15737     15734     15732     15735     15738
     15735     15738     15741     15742     15735     15738     15741     15743
     15735     15738     15741     15744     15736     15735     15738     15739
     15736     15735     15738     15740     15736     15735     15738     15741
     15737     15735     15738     15739     15737     15735     15738     15740
     15737     15735     15738     15741     15738     15741     15744     15745
     15738     15741     15744     15746     15738     15741     15744     15747
     15739     15738     15741     15742     15739     15738     15741     15743
     15739     15738     15741     15744     15740     15738     15741     15742
     15740     15738     15741     15743     15740     15738     15741     15744
     15741     15744     15747     15748     15741     15744     15747     15749
     15741     15744     15747     15750     15742     15741     15744     15745
     15742     15741     15744     15746     15742     15741     15744     15747
     15743     15741     15744     15745     15743     15741     15744     15746
     15743     15741     15744     15747     15744     15747     15750     15751
     15744     15747     15750     15752     15744     15747     15750     15753
     15745     15744     15747     15748     15745     15744     15747     15749
     15745     15744     15747     15750     15746     15744     15747     15748
     15746     15744     15747     15749     15746     15744     15747     15750
     15747     15750     15753     15754     15747     15750     15753     15755
     15747     15750     15753     15756     15748     15747     15750     15751
     15748     15747     15750     15752     15748     15747     15750     15753
     15749     15747     15750     15751     15749     15747     15750     15752
     15749     15747     15750     15753     15750     15753     15756     15757
     15750     15753     15756     15758     15750     15753     15756     15759
     15751     15750     15753     15754     15751     15750     15753     15755
     15751     15750     15753     15756     15752     15750     15753     15754
     15752     15750     15753     15755     15752     15750     15753     15756
     15753     15756     15759     15760     15753     15756     15759     15761
     15753     15756     15759     15762     15754     15753     15756     15757
     15754     15753     15756     15758     15754     15753     15756     15759
     15755     15753     15756     15757     15755     15753     15756     15758
     15755     15753     15756     15759     15757     15756     15759     15760
     15757     15756     15759     15761     15757     15756     15759     15762
     15758     15756     15759     15760     15758     15756     15759     15761
     15758     15756     15759     15762     15763     15776     15779     15780
     15763     15776     15779     15781     15763     15776     15779     15786
     15764     15763     15768     15769     15764     15763     15768     15770
     15764     15763     15768     15771     15764     15763     15772     15773
     15764     15763     15772     15774     15764     15763     15772     15775
     15764     15763     15776     15777     15764     15763     15776     15778
     15764     15763     15776     15779     15765     15764     15763     15768
     15765     15764     15763     15772     15765     15764     15763     15776
     15766     15764     15763     15768     15766     15764     15763     15772
     15766     15764     15763     15776     15767     15764     15763     15768
     15767     15764     15763     15772     15767     15764     15763     15776
     15768     15763     15772     15773     15768     15763     15772     15774
     15768     15763     15772     15775     15768     15763     15776     15777
     15768     15763     15776     15778     15768     15763     15776     15779
     15769     15768     15763     15772     15769     15768     15763     15776
     15770     15768     15763     15772     15770     15768     15763     15776
     15771     15768     15763     15772     15771     15768     15763     15776
     15772     15763     15776     15777     15772     15763     15776     15778
     15772     15763     15776     15779     15773     15772     15763     15776
     15774     15772     15763     15776     15775     15772     15763     15776
     15776     15779     15786     15782     15777     15776     15779     15780
     15777     15776     15779     15781     15777     15776     15779     15786
     15778     15776     15779     15780     15778     15776     15779     15781
     15778     15776     15779     15786     15779     15786     15782     15783
     15779     15786     15782     15784     15779     15786     15782     15785
     15780     15779     15786     15782     15781     15779     15786     15782
     15782     15785     15787     15788     15782     15785     15787     15789
     15782     15785     15787     15792     15783     15782     15785     15787
     15784     15782     15785     15787     15785     15787     15792     15790
     15785     15787     15792     15793     15785     15787     15792     15794
     15786     15782     15785     15787     15787     15792     15790     15791
     15787     15792     15790     15842     15787     15792     15794     15795
     15787     15792     15794     15796     15787     15792     15794     15798
     15788     15787     15792     15790     15788     15787     15792     15793
     15788     15787     15792     15794     15789     15787     15792     15790
     15789     15787     15792     15793     15789     15787     15792     15794
     15790     15792     15794     15795     15790     15792     15794     15796
     15790     15792     15794     15798     15790     15842     15844     15845
     15790     15842     15844     15846     15790     15842     15844     15847
     15791     15790     15792     15793     15791     15790     15792     15794
     15791     15790     15842     15843     15791     15790     15842     15844
     15792     15790     15842     15843     15792     15790     15842     15844
     15792     15794     15796     15797     15792     15794     15798     15799
     15792     15794     15798     15800     15793     15792     15790     15842
     15793     15792     15794     15795     15793     15792     15794     15796
     15793     15792     15794     15798     15794     15792     15790     15842
     15794     15798     15800     15801     15794     15798     15800     15802
     15795     15794     15796     15797     15795     15794     15798     15799
     15795     15794     15798     15800     15796     15794     15798     15799
     15796     15794     15798     15800     15797     15796     15794     15798
     15798     15800     15802     15803     15798     15800     15802     15804
     15798     15800     15802     15805     15799     15798     15800     15801
     15799     15798     15800     15802     15800     15802     15805     15806
     15800     15802     15805     15807     15800     15802     15805     15808
     15801     15800     15802     15803     15801     15800     15802     15804
     15801     15800     15802     15805     15802     15805     15808     15809
     15802     15805     15808     15810     15802     15805     15808     15811
     15803     15802     15805     15806     15803     15802     15805     15807
     15803     15802     15805     15808     15804     15802     15805     15806
     15804     15802     15805     15807     15804     15802     15805     15808
     15805     15808     15811     15812     15805     15808     15811     15813
     15805     15808     15811     15814     15806     15805     15808     15809
     15806     15805     15808     15810     15806     15805     15808     15811
     15807     15805     15808     15809     15807     15805     15808     15810
     15807     15805     15808     15811     15808     15811     15814     15815
     15808     15811     15814     15816     15808     15811     15814     15817
     15809     15808     15811     15812     15809     15808     15811     15813
     15809     15808     15811     15814     15810     15808     15811     15812
     15810     15808     15811     15813     15810     15808     15811     15814
     15811     15814     15817     15818     15811     15814     15817     15819
     15811     15814     15817     15820     15812     15811     15814     15815
     15812     15811     15814     15816     15812     15811     15814     15817
     15813     15811     15814     15815     15813     15811     15814     15816
     15813     15811     15814     15817     15814     15817     15820     15821
     15814     15817     15820     15822     15814     15817     15820     15823
     15815     15814     15817     15818     15815     15814     15817     15819
     15815     15814     15817     15820     15816     15814     15817     15818
     15816     15814     15817     15819     15816     15814     15817     15820
     15817     15820     15823     15824     15817     15820     15823     15825
     15817     15820     15823     15826     15818     15817     15820     15821
     15818     15817     15820     15822     15818     15817     15820     15823
     15819     15817     15820     15821     15819     15817     15820     15822
     15819     15817     15820     15823     15820     15823     15826     15827
     15820     15823     15826     15828     15820     15823     15826     15829
     15821     15820     15823     15824     15821     15820     15823     15825
     15821     15820     15823     15826     15822     15820     15823     15824
     15822     15820     15823     15825     15822     15820     15823     15826
     15823     15826     15829     15830     15823     15826     15829     15831
     15823     15826     15829     15832     15824     15823     15826     15827
     15824     15823     15826     15828     15824     15823     15826     15829
     15825     15823     15826     15827     15825     15823     15826     15828
     15825     15823     15826     15829     15826     15829     15832     15833
     15826     15829     15832     15834     15826     15829     15832     15835
     15827     15826     15829     15830     15827     15826     15829     15831
     15827     15826     15829     15832     15828     15826     15829     15830
     15828     15826     15829     15831     15828     15826     15829     15832
     15829     15832     15835     15836     15829     15832     15835     15837
     15829     15832     15835     15838     15830     15829     15832     15833
     15830     15829     15832     15834     15830     15829     15832     15835
     15831     15829     15832     15833     15831     15829     15832     15834
     15831     15829     15832     15835     15832     15835     15838     15839
     15832     15835     15838     15840     15832     15835     15838     15841
     15833     15832     15835     15836     15833     15832     15835     15837
     15833     15832     15835     15838     15834     15832     15835     15836
     15834     15832     15835     15837     15834     15832     15835     15838
     15836     15835     15838     15839     15836     15835     15838     15840
     15836     15835     15838     15841     15837     15835     15838     15839
     15837     15835     15838     15840     15837     15835     15838     15841
     15842     15844     15847     15848     15842     15844     15847     15849
     15842     15844     15847     15850     15843     15842     15844     15845
     15843     15842     15844     15846     15843     15842     15844     15847
     15844     15847     15850     15851     15844     15847     15850     15852
     15844     15847     15850     15853     15845     15844     15847     15848
     15845     15844     15847     15849     15845     15844     15847     15850
     15846     15844     15847     15848     15846     15844     15847     15849
     15846     15844     15847     15850     15847     15850     15853     15854
     15847     15850     15853     15855     15847     15850     15853     15856
     15848     15847     15850     15851     15848     15847     15850     15852
     15848     15847     15850     15853     15849     15847     15850     15851
     15849     15847     15850     15852     15849     15847     15850     15853
     15850     15853     15856     15857     15850     15853     15856     15858
     15850     15853     15856     15859     15851     15850     15853     15854
     15851     15850     15853     15855     15851     15850     15853     15856
     15852     15850     15853     15854     15852     15850     15853     15855
     15852     15850     15853     15856     15853     15856     15859     15860
     15853     15856     15859     15861     15853     15856     15859     15862
     15854     15853     15856     15857     15854     15853     15856     15858
     15854     15853     15856     15859     15855     15853     15856     15857
     15855     15853     15856     15858     15855     15853     15856     15859
     15856     15859     15862     15863     15856     15859     15862     15864
     15856     15859     15862     15865     15857     15856     15859     15860
     15857     15856     15859     15861     15857     15856     15859     15862
     15858     15856     15859     15860     15858     15856     15859     15861
     15858     15856     15859     15862     15859     15862     15865     15866
     15859     15862     15865     15867     15859     15862     15865     15868
     15860     15859     15862     15863     15860     15859     15862     15864
     15860     15859     15862     15865     15861     15859     15862     15863
     15861     15859     15862     15864     15861     15859     15862     15865
     15862     15865     15868     15869     15862     15865     15868     15870
     15862     15865     15868     15871     15863     15862     15865     15866
     15863     15862     15865     15867     15863     15862     15865     15868
     15864     15862     15865     15866     15864     15862     15865     15867
     15864     15862     15865     15868     15865     15868     15871     15872
     15865     15868     15871     15873     15865     15868     15871     15874
     15866     15865     15868     15869     15866     15865     15868     15870
     15866     15865     15868     15871     15867     15865     15868     15869
     15867     15865     15868     15870     15867     15865     15868     15871
     15868     15871     15874     15875     15868     15871     15874     15876
     15868     15871     15874     15877     15869     15868     15871     15872
     15869     15868     15871     15873     15869     15868     15871     15874
     15870     15868     15871     15872     15870     15868     15871     15873
     15870     15868     15871     15874     15871     15874     15877     15878
     15871     15874     15877     15879     15871     15874     15877     15880
     15872     15871     15874     15875     15872     15871     15874     15876
     15872     15871     15874     15877     15873     15871     15874     15875
     15873     15871     15874     15876     15873     15871     15874     15877
     15874     15877     15880     15881     15874     15877     15880     15882
     15874     15877     15880     15883     15875     15874     15877     15878
     15875     15874     15877     15879     15875     15874     15877     15880
     15876     15874     15877     15878     15876     15874     15877     15879
     15876     15874     15877     15880     15877     15880     15883     15884
     15877     15880     15883     15885     15877     15880     15883     15886
     15878     15877     15880     15881     15878     15877     15880     15882
     15878     15877     15880     15883     15879     15877     15880     15881
     15879     15877     15880     15882     15879     15877     15880     15883
     15880     15883     15886     15887     15880     15883     15886     15888
     15880     15883     15886     15889     15881     15880     15883     15884
     15881     15880     15883     15885     15881     15880     15883     15886
     15882     15880     15883     15884     15882     15880     15883     15885
     15882     15880     15883     15886     15883     15886     15889     15890
     15883     15886     15889     15891     15883     15886     15889     15892
     15884     15883     15886     15887     15884     15883     15886     15888
     15884     15883     15886     15889     15885     15883     15886     15887
     15885     15883     15886     15888     15885     15883     15886     15889
     15886     15889     15892     15893     15886     15889     15892     15894
     15886     15889     15892     15895     15887     15886     15889     15890
     15887     15886     15889     15891     15887     15886     15889     15892
     15888     15886     15889     15890     15888     15886     15889     15891
     15888     15886     15889     15892     15889     15892     15895     15896
     15889     15892     15895     15897     15889     15892     15895     15898
     15890     15889     15892     15893     15890     15889     15892     15894
     15890     15889     15892     15895     15891     15889     15892     15893
     15891     15889     15892     15894     15891     15889     15892     15895
     15892     15895     15898     15899     15892     15895     15898     15900
     15892     15895     15898     15901     15893     15892     15895     15896
     15893     15892     15895     15897     15893     15892     15895     15898
     15894     15892     15895     15896     15894     15892     15895     15897
     15894     15892     15895     15898     15895     15898     15901     15902
     15895     15898     15901     15903     15895     15898     15901     15904
     15896     15895     15898     15899     15896     15895     15898     15900
     15896     15895     15898     15901     15897     15895     15898     15899
     15897     15895     15898     15900     15897     15895     15898     15901
     15898     15901     15904     15905     15898     15901     15904     15906
     15898     15901     15904     15907     15899     15898     15901     15902
     15899     15898     15901     15903     15899     15898     15901     15904
     15900     15898     15901     15902     15900     15898     15901     15903
     15900     15898     15901     15904     15901     15904     15907     15908
     15901     15904     15907     15909     15901     15904     15907     15910
     15902     15901     15904     15905     15902     15901     15904     15906
     15902     15901     15904     15907     15903     15901     15904     15905
     15903     15901     15904     15906     15903     15901     15904     15907
     15905     15904     15907     15908     15905     15904     15907     15909
     15905     15904     15907     15910     15906     15904     15907     15908
     15906     15904     15907     15909     15906     15904     15907     15910
     15911     15912     15927     15928     15911     15912     15927     15929
     15911     15912     15927     15933     15912     15911     15915     15916
     15912     15911     15915     15917     15912     15911     15915     15918
     15912     15911     15919     15920     15912     15911     15919     15921
     15912     15911     15919     15922     15912     15911     15923     15924
     15912     15911     15923     15925     15912     15911     15923     15926
     15912     15927     15933     15930     15913     15912     15911     15915
     15913     15912     15911     15919     15913     15912     15911     15923
     15913     15912     15927     15928     15913     15912     15927     15929
     15913     15912     15927     15933     15914     15912     15911     15915
     15914     15912     15911     15919     15914     15912     15911     15923
     15914     15912     15927     15928     15914     15912     15927     15929
     15914     15912     15927     15933     15915     15911     15912     15927
     15915     15911     15919     15920     15915     15911     15919     15921
     15915     15911     15919     15922     15915     15911     15923     15924
     15915     15911     15923     15925     15915     15911     15923     15926
     15916     15915     15911     15919     15916     15915     15911     15923
     15917     15915     15911     15919     15917     15915     15911     15923
     15918     15915     15911     15919     15918     15915     15911     15923
     15919     15911     15912     15927     15919     15911     15923     15924
     15919     15911     15923     15925     15919     15911     15923     15926
     15920     15919     15911     15923     15921     15919     15911     15923
     15922     15919     15911     15923     15923     15911     15912     15927
     15927     15933     15930     15931     15927     15933     15930     15932
     15927     15933     15930     15934     15928     15927     15933     15930
     15929     15927     15933     15930     15930     15934     15935     15936
     15930     15934     15935     15937     15930     15934     15935     15938
     15931     15930     15934     15935     15932     15930     15934     15935
     15933     15930     15934     15935     15934     15935     15938     15939
     15934     15935     15938     15940     15934     15935     15938     15946
     15935     15938     15940     15941     15935     15938     15946     15947
     15935     15938     15946     15948     15935     15938     15946     15949
     15936     15935     15938     15939     15936     15935     15938     15940
     15936     15935     15938     15946     15937     15935     15938     15939
     15937     15935     15938     15940     15937     15935     15938     15946
     15938     15940     15941     15942     15938     15940     15941     15943
     15938     15946     15949     15950     15939     15938     15940     15941
     15939     15938     15946     15947     15939     15938     15946     15948
     15939     15938     15946     15949     15940     15938     15946     15947
     15940     15938     15946     15948     15940     15938     15946     15949
     15940     15941     15943     15944     15940     15941     15943     15945
     15940     15941     15943     15955     15941     15940     15938     15946
     15941     15943     15955     15956     15941     15943     15955     15957
     15941     15943     15955     15958     15942     15941     15943     15944
     15942     15941     15943     15945     15942     15941     15943     15955
     15943     15955     15958     15959     15943     15955     15958     15960
     15943     15955     15958     15961     15944     15943     15955     15956
     15944     15943     15955     15957     15944     15943     15955     15958
     15945     15943     15955     15956     15945     15943     15955     15957
     15945     15943     15955     15958     15946     15949     15950     15951
     15946     15949     15950     15952     15947     15946     15949     15950
     15948     15946     15949     15950     15949     15950     15952     15953
     15949     15950     15952     15954     15949     15950     15952     16002
     15950     15952     16002     16003     15950     15952     16002     16004
     15950     15952     16002     16005     15951     15950     15952     15953
     15951     15950     15952     15954     15951     15950     15952     16002
     15952     16002     16005     16006     15952     16002     16005     16007
     15952     16002     16005     16008     15953     15952     16002     16003
     15953     15952     16002     16004     15953     15952     16002     16005
     15954     15952     16002     16003     15954     15952     16002     16004
     15954     15952     16002     16005     15955     15958     15961     15962
     15955     15958     15961     15963     15955     15958     15961     15964
     15956     15955     15958     15959     15956     15955     15958     15960
     15956     15955     15958     15961     15957     15955     15958     15959
     15957     15955     15958     15960     15957     15955     15958     15961
     15958     15961     15964     15965     15958     15961     15964     15966
     15958     15961     15964     15967     15959     15958     15961     15962
     15959     15958     15961     15963     15959     15958     15961     15964
     15960     15958     15961     15962     15960     15958     15961     15963
     15960     15958     15961     15964     15961     15964     15967     15968
     15961     15964     15967     15969     15961     15964     15967     15970
     15962     15961     15964     15965     15962     15961     15964     15966
     15962     15961     15964     15967     15963     15961     15964     15965
     15963     15961     15964     15966     15963     15961     15964     15967
     15964     15967     15970     15971     15964     15967     15970     15972
     15964     15967     15970     15973     15965     15964     15967     15968
     15965     15964     15967     15969     15965     15964     15967     15970
     15966     15964     15967     15968     15966     15964     15967     15969
     15966     15964     15967     15970     15967     15970     15973     15974
     15967     15970     15973     15975     15968     15967     15970     15971
     15968     15967     15970     15972     15968     15967     15970     15973
     15969     15967     15970     15971     15969     15967     15970     15972
     15969     15967     15970     15973     15970     15973     15975     15976
     15970     15973     15975     15977     15971     15970     15973     15974
     15971     15970     15973     15975     15972     15970     15973     15974
     15972     15970     15973     15975     15973     15975     15977     15978
     15973     15975     15977     15979     15973     15975     15977     15980
     15974     15973     15975     15976     15974     15973     15975     15977
     15975     15977     15980     15981     15975     15977     15980     15982
     15975     15977     15980     15983     15976     15975     15977     15978
     15976     15975     15977     15979     15976     15975     15977     15980
     15977     15980     15983     15984     15977     15980     15983     15985
     15977     15980     15983     15986     15978     15977     15980     15981
     15978     15977     15980     15982     15978     15977     15980     15983
     15979     15977     15980     15981     15979     15977     15980     15982
     15979     15977     15980     15983     15980     15983     15986     15987
     15980     15983     15986     15988     15980     15983     15986     15989
     15981     15980     15983     15984     15981     15980     15983     15985
     15981     15980     15983     15986     15982     15980     15983     15984
     15982     15980     15983     15985     15982     15980     15983     15986
     15983     15986     15989     15990     15983     15986     15989     15991
     15983     15986     15989     15992     15984     15983     15986     15987
     15984     15983     15986     15988     15984     15983     15986     15989
     15985     15983     15986     15987     15985     15983     15986     15988
     15985     15983     15986     15989     15986     15989     15992     15993
     15986     15989     15992     15994     15986     15989     15992     15995
     15987     15986     15989     15990     15987     15986     15989     15991
     15987     15986     15989     15992     15988     15986     15989     15990
     15988     15986     15989     15991     15988     15986     15989     15992
     15989     15992     15995     15996     15989     15992     15995     15997
     15989     15992     15995     15998     15990     15989     15992     15993
     15990     15989     15992     15994     15990     15989     15992     15995
     15991     15989     15992     15993     15991     15989     15992     15994
     15991     15989     15992     15995     15992     15995     15998     15999
     15992     15995     15998     16000     15992     15995     15998     16001
     15993     15992     15995     15996     15993     15992     15995     15997
     15993     15992     15995     15998     15994     15992     15995     15996
     15994     15992     15995     15997     15994     15992     15995     15998
     15996     15995     15998     15999     15996     15995     15998     16000
     15996     15995     15998     16001     15997     15995     15998     15999
     15997     15995     15998     16000     15997     15995     15998     16001
     16002     16005     16008     16009     16002     16005     16008     16010
     16002     16005     16008     16011     16003     16002     16005     16006
     16003     16002     16005     16007     16003     16002     16005     16008
     16004     16002     16005     16006     16004     16002     16005     16007
     16004     16002     16005     16008     16005     16008     16011     16012
     16005     16008     16011     16013     16005     16008     16011     16014
     16006     16005     16008     16009     16006     16005     16008     16010
     16006     16005     16008     16011     16007     16005     16008     16009
     16007     16005     16008     16010     16007     16005     16008     16011
     16008     16011     16014     16015     16008     16011     16014     16016
     16008     16011     16014     16017     16009     16008     16011     16012
     16009     16008     16011     16013     16009     16008     16011     16014
     16010     16008     16011     16012     16010     16008     16011     16013
     16010     16008     16011     16014     16011     16014     16017     16018
     16011     16014     16017     16019     16011     16014     16017     16020
     16012     16011     16014     16015     16012     16011     16014     16016
     16012     16011     16014     16017     16013     16011     16014     16015
     16013     16011     16014     16016     16013     16011     16014     16017
     16014     16017     16020     16021     16014     16017     16020     16022
     16015     16014     16017     16018     16015     16014     16017     16019
     16015     16014     16017     16020     16016     16014     16017     16018
     16016     16014     16017     16019     16016     16014     16017     16020
     16017     16020     16022     16023     16017     16020     16022     16024
     16018     16017     16020     16021     16018     16017     16020     16022
     16019     16017     16020     16021     16019     16017     16020     16022
     16020     16022     16024     16025     16020     16022     16024     16026
     16020     16022     16024     16027     16021     16020     16022     16023
     16021     16020     16022     16024     16022     16024     16027     16028
     16022     16024     16027     16029     16022     16024     16027     16030
     16023     16022     16024     16025     16023     16022     16024     16026
     16023     16022     16024     16027     16024     16027     16030     16031
     16024     16027     16030     16032     16024     16027     16030     16033
     16025     16024     16027     16028     16025     16024     16027     16029
     16025     16024     16027     16030     16026     16024     16027     16028
     16026     16024     16027     16029     16026     16024     16027     16030
     16027     16030     16033     16034     16027     16030     16033     16035
     16027     16030     16033     16036     16028     16027     16030     16031
     16028     16027     16030     16032     16028     16027     16030     16033
     16029     16027     16030     16031     16029     16027     16030     16032
     16029     16027     16030     16033     16030     16033     16036     16037
     16030     16033     16036     16038     16030     16033     16036     16039
     16031     16030     16033     16034     16031     16030     16033     16035
     16031     16030     16033     16036     16032     16030     16033     16034
     16032     16030     16033     16035     16032     16030     16033     16036
     16033     16036     16039     16040     16033     16036     16039     16041
     16033     16036     16039     16042     16034     16033     16036     16037
     16034     16033     16036     16038     16034     16033     16036     16039
     16035     16033     16036     16037     16035     16033     16036     16038
     16035     16033     16036     16039     16036     16039     16042     16043
     16036     16039     16042     16044     16036     16039     16042     16045
     16037     16036     16039     16040     16037     16036     16039     16041
     16037     16036     16039     16042     16038     16036     16039     16040
     16038     16036     16039     16041     16038     16036     16039     16042
     16039     16042     16045     16046     16039     16042     16045     16047
     16039     16042     16045     16048     16040     16039     16042     16043
     16040     16039     16042     16044     16040     16039     16042     16045
     16041     16039     16042     16043     16041     16039     16042     16044
     16041     16039     16042     16045     16043     16042     16045     16046
     16043     16042     16045     16047     16043     16042     16045     16048
     16044     16042     16045     16046     16044     16042     16045     16047
     16044     16042     16045     16048     16049     16050     16065     16066
     16049     16050     16065     16067     16049     16050     16065     16071
     16050     16049     16053     16054     16050     16049     16053     16055
     16050     16049     16053     16056     16050     16049     16057     16058
     16050     16049     16057     16059     16050     16049     16057     16060
     16050     16049     16061     16062     16050     16049     16061     16063
     16050     16049     16061     16064     16050     16065     16071     16068
     16051     16050     16049     16053     16051     16050     16049     16057
     16051     16050     16049     16061     16051     16050     16065     16066
     16051     16050     16065     16067     16051     16050     16065     16071
     16052     16050     16049     16053     16052     16050     16049     16057
     16052     16050     16049     16061     16052     16050     16065     16066
     16052     16050     16065     16067     16052     16050     16065     16071
     16053     16049     16050     16065     16053     16049     16057     16058
     16053     16049     16057     16059     16053     16049     16057     16060
     16053     16049     16061     16062     16053     16049     16061     16063
     16053     16049     16061     16064     16054     16053     16049     16057
     16054     16053     16049     16061     16055     16053     16049     16057
     16055     16053     16049     16061     16056     16053     16049     16057
     16056     16053     16049     16061     16057     16049     16050     16065
     16057     16049     16061     16062     16057     16049     16061     16063
     16057     16049     16061     16064     16058     16057     16049     16061
     16059     16057     16049     16061     16060     16057     16049     16061
     16061     16049     16050     16065     16065     16071     16068     16069
     16065     16071     16068     16070     16065     16071     16068     16072
     16066     16065     16071     16068     16067     16065     16071     16068
     16068     16072     16073     16074     16068     16072     16073     16075
     16068     16072     16073     16076     16069     16068     16072     16073
     16070     16068     16072     16073     16071     16068     16072     16073
     16072     16073     16076     16077     16072     16073     16076     16078
     16072     16073     16076     16084     16073     16076     16078     16079
     16073     16076     16084     16085     16073     16076     16084     16086
     16073     16076     16084     16087     16074     16073     16076     16077
     16074     16073     16076     16078     16074     16073     16076     16084
     16075     16073     16076     16077     16075     16073     16076     16078
     16075     16073     16076     16084     16076     16078     16079     16080
     16076     16078     16079     16081     16076     16084     16087     16088
     16077     16076     16078     16079     16077     16076     16084     16085
     16077     16076     16084     16086     16077     16076     16084     16087
     16078     16076     16084     16085     16078     16076     16084     16086
     16078     16076     16084     16087     16078     16079     16081     16082
     16078     16079     16081     16083     16078     16079     16081     16093
     16079     16078     16076     16084     16079     16081     16093     16094
     16079     16081     16093     16095     16079     16081     16093     16096
     16080     16079     16081     16082     16080     16079     16081     16083
     16080     16079     16081     16093     16081     16093     16096     16097
     16081     16093     16096     16098     16081     16093     16096     16099
     16082     16081     16093     16094     16082     16081     16093     16095
     16082     16081     16093     16096     16083     16081     16093     16094
     16083     16081     16093     16095     16083     16081     16093     16096
     16084     16087     16088     16089     16084     16087     16088     16090
     16085     16084     16087     16088     16086     16084     16087     16088
     16087     16088     16090     16091     16087     16088     16090     16092
     16087     16088     16090     16140     16088     16090     16140     16141
     16088     16090     16140     16142     16088     16090     16140     16143
     16089     16088     16090     16091     16089     16088     16090     16092
     16089     16088     16090     16140     16090     16140     16143     16144
     16090     16140     16143     16145     16090     16140     16143     16146
     16091     16090     16140     16141     16091     16090     16140     16142
     16091     16090     16140     16143     16092     16090     16140     16141
     16092     16090     16140     16142     16092     16090     16140     16143
     16093     16096     16099     16100     16093     16096     16099     16101
     16093     16096     16099     16102     16094     16093     16096     16097
     16094     16093     16096     16098     16094     16093     16096     16099
     16095     16093     16096     16097     16095     16093     16096     16098
     16095     16093     16096     16099     16096     16099     16102     16103
     16096     16099     16102     16104     16096     16099     16102     16105
     16097     16096     16099     16100     16097     16096     16099     16101
     16097     16096     16099     16102     16098     16096     16099     16100
     16098     16096     16099     16101     16098     16096     16099     16102
     16099     16102     16105     16106     16099     16102     16105     16107
     16099     16102     16105     16108     16100     16099     16102     16103
     16100     16099     16102     16104     16100     16099     16102     16105
     16101     16099     16102     16103     16101     16099     16102     16104
     16101     16099     16102     16105     16102     16105     16108     16109
     16102     16105     16108     16110     16102     16105     16108     16111
     16103     16102     16105     16106     16103     16102     16105     16107
     16103     16102     16105     16108     16104     16102     16105     16106
     16104     16102     16105     16107     16104     16102     16105     16108
     16105     16108     16111     16112     16105     16108     16111     16113
     16106     16105     16108     16109     16106     16105     16108     16110
     16106     16105     16108     16111     16107     16105     16108     16109
     16107     16105     16108     16110     16107     16105     16108     16111
     16108     16111     16113     16114     16108     16111     16113     16115
     16109     16108     16111     16112     16109     16108     16111     16113
     16110     16108     16111     16112     16110     16108     16111     16113
     16111     16113     16115     16116     16111     16113     16115     16117
     16111     16113     16115     16118     16112     16111     16113     16114
     16112     16111     16113     16115     16113     16115     16118     16119
     16113     16115     16118     16120     16113     16115     16118     16121
     16114     16113     16115     16116     16114     16113     16115     16117
     16114     16113     16115     16118     16115     16118     16121     16122
     16115     16118     16121     16123     16115     16118     16121     16124
     16116     16115     16118     16119     16116     16115     16118     16120
     16116     16115     16118     16121     16117     16115     16118     16119
     16117     16115     16118     16120     16117     16115     16118     16121
     16118     16121     16124     16125     16118     16121     16124     16126
     16118     16121     16124     16127     16119     16118     16121     16122
     16119     16118     16121     16123     16119     16118     16121     16124
     16120     16118     16121     16122     16120     16118     16121     16123
     16120     16118     16121     16124     16121     16124     16127     16128
     16121     16124     16127     16129     16121     16124     16127     16130
     16122     16121     16124     16125     16122     16121     16124     16126
     16122     16121     16124     16127     16123     16121     16124     16125
     16123     16121     16124     16126     16123     16121     16124     16127
     16124     16127     16130     16131     16124     16127     16130     16132
     16124     16127     16130     16133     16125     16124     16127     16128
     16125     16124     16127     16129     16125     16124     16127     16130
     16126     16124     16127     16128     16126     16124     16127     16129
     16126     16124     16127     16130     16127     16130     16133     16134
     16127     16130     16133     16135     16127     16130     16133     16136
     16128     16127     16130     16131     16128     16127     16130     16132
     16128     16127     16130     16133     16129     16127     16130     16131
     16129     16127     16130     16132     16129     16127     16130     16133
     16130     16133     16136     16137     16130     16133     16136     16138
     16130     16133     16136     16139     16131     16130     16133     16134
     16131     16130     16133     16135     16131     16130     16133     16136
     16132     16130     16133     16134     16132     16130     16133     16135
     16132     16130     16133     16136     16134     16133     16136     16137
     16134     16133     16136     16138     16134     16133     16136     16139
     16135     16133     16136     16137     16135     16133     16136     16138
     16135     16133     16136     16139     16140     16143     16146     16147
     16140     16143     16146     16148     16140     16143     16146     16149
     16141     16140     16143     16144     16141     16140     16143     16145
     16141     16140     16143     16146     16142     16140     16143     16144
     16142     16140     16143     16145     16142     16140     16143     16146
     16143     16146     16149     16150     16143     16146     16149     16151
     16143     16146     16149     16152     16144     16143     16146     16147
     16144     16143     16146     16148     16144     16143     16146     16149
     16145     16143     16146     16147     16145     16143     16146     16148
     16145     16143     16146     16149     16146     16149     16152     16153
     16146     16149     16152     16154     16146     16149     16152     16155
     16147     16146     16149     16150     16147     16146     16149     16151
     16147     16146     16149     16152     16148     16146     16149     16150
     16148     16146     16149     16151     16148     16146     16149     16152
     16149     16152     16155     16156     16149     16152     16155     16157
     16149     16152     16155     16158     16150     16149     16152     16153
     16150     16149     16152     16154     16150     16149     16152     16155
     16151     16149     16152     16153     16151     16149     16152     16154
     16151     16149     16152     16155     16152     16155     16158     16159
     16152     16155     16158     16160     16153     16152     16155     16156
     16153     16152     16155     16157     16153     16152     16155     16158
     16154     16152     16155     16156     16154     16152     16155     16157
     16154     16152     16155     16158     16155     16158     16160     16161
     16155     16158     16160     16162     16156     16155     16158     16159
     16156     16155     16158     16160     16157     16155     16158     16159
     16157     16155     16158     16160     16158     16160     16162     16163
     16158     16160     16162     16164     16158     16160     16162     16165
     16159     16158     16160     16161     16159     16158     16160     16162
     16160     16162     16165     16166     16160     16162     16165     16167
     16160     16162     16165     16168     16161     16160     16162     16163
     16161     16160     16162     16164     16161     16160     16162     16165
     16162     16165     16168     16169     16162     16165     16168     16170
     16162     16165     16168     16171     16163     16162     16165     16166
     16163     16162     16165     16167     16163     16162     16165     16168
     16164     16162     16165     16166     16164     16162     16165     16167
     16164     16162     16165     16168     16165     16168     16171     16172
     16165     16168     16171     16173     16165     16168     16171     16174
     16166     16165     16168     16169     16166     16165     16168     16170
     16166     16165     16168     16171     16167     16165     16168     16169
     16167     16165     16168     16170     16167     16165     16168     16171
     16168     16171     16174     16175     16168     16171     16174     16176
     16168     16171     16174     16177     16169     16168     16171     16172
     16169     16168     16171     16173     16169     16168     16171     16174
     16170     16168     16171     16172     16170     16168     16171     16173
     16170     16168     16171     16174     16171     16174     16177     16178
     16171     16174     16177     16179     16171     16174     16177     16180
     16172     16171     16174     16175     16172     16171     16174     16176
     16172     16171     16174     16177     16173     16171     16174     16175
     16173     16171     16174     16176     16173     16171     16174     16177
     16174     16177     16180     16181     16174     16177     16180     16182
     16174     16177     16180     16183     16175     16174     16177     16178
     16175     16174     16177     16179     16175     16174     16177     16180
     16176     16174     16177     16178     16176     16174     16177     16179
     16176     16174     16177     16180     16177     16180     16183     16184
     16177     16180     16183     16185     16177     16180     16183     16186
     16178     16177     16180     16181     16178     16177     16180     16182
     16178     16177     16180     16183     16179     16177     16180     16181
     16179     16177     16180     16182     16179     16177     16180     16183
     16181     16180     16183     16184     16181     16180     16183     16185
     16181     16180     16183     16186     16182     16180     16183     16184
     16182     16180     16183     16185     16182     16180     16183     16186
     16187     16191     16194     16195     16187     16191     16194     16196
     16187     16191     16194     16201     16188     16187     16191     16192
     16188     16187     16191     16193     16188     16187     16191     16194
     16189     16187     16191     16192     16189     16187     16191     16193
     16189     16187     16191     16194     16190     16187     16191     16192
     16190     16187     16191     16193     16190     16187     16191     16194
     16191     16194     16201     16197     16192     16191     16194     16195
     16192     16191     16194     16196     16192     16191     16194     16201
     16193     16191     16194     16195     16193     16191     16194     16196
     16193     16191     16194     16201     16194     16201     16197     16198
     16194     16201     16197     16199     16194     16201     16197     16200
     16195     16194     16201     16197     16196     16194     16201     16197
     16197     16200     16202     16203     16197     16200     16202     16204
     16197     16200     16202     16205     16198     16197     16200     16202
     16199     16197     16200     16202     16200     16202     16205     16206
     16200     16202     16205     16207     16200     16202     16205     16213
     16201     16197     16200     16202     16202     16205     16207     16208
     16202     16205     16213     16214     16202     16205     16213     16215
     16202     16205     16213     16216     16203     16202     16205     16206
     16203     16202     16205     16207     16203     16202     16205     16213
     16204     16202     16205     16206     16204     16202     16205     16207
     16204     16202     16205     16213     16205     16207     16208     16209
     16205     16207     16208     16210     16205     16213     16216     16217
     16206     16205     16207     16208     16206     16205     16213     16214
     16206     16205     16213     16215     16206     16205     16213     16216
     16207     16205     16213     16214     16207     16205     16213     16215
     16207     16205     16213     16216     16207     16208     16210     16211
     16207     16208     16210     16212     16207     16208     16210     16222
     16208     16207     16205     16213     16208     16210     16222     16223
     16208     16210     16222     16224     16208     16210     16222     16225
     16209     16208     16210     16211     16209     16208     16210     16212
     16209     16208     16210     16222     16210     16222     16225     16226
     16210     16222     16225     16227     16210     16222     16225     16228
     16211     16210     16222     16223     16211     16210     16222     16224
     16211     16210     16222     16225     16212     16210     16222     16223
     16212     16210     16222     16224     16212     16210     16222     16225
     16213     16216     16217     16218     16213     16216     16217     16219
     16214     16213     16216     16217     16215     16213     16216     16217
     16216     16217     16219     16220     16216     16217     16219     16221
     16216     16217     16219     16269     16217     16219     16269     16270
     16217     16219     16269     16271     16217     16219     16269     16272
     16218     16217     16219     16220     16218     16217     16219     16221
     16218     16217     16219     16269     16219     16269     16272     16273
     16219     16269     16272     16274     16219     16269     16272     16275
     16220     16219     16269     16270     16220     16219     16269     16271
     16220     16219     16269     16272     16221     16219     16269     16270
     16221     16219     16269     16271     16221     16219     16269     16272
     16222     16225     16228     16229     16222     16225     16228     16230
     16222     16225     16228     16231     16223     16222     16225     16226
     16223     16222     16225     16227     16223     16222     16225     16228
     16224     16222     16225     16226     16224     16222     16225     16227
     16224     16222     16225     16228     16225     16228     16231     16232
     16225     16228     16231     16233     16225     16228     16231     16234
     16226     16225     16228     16229     16226     16225     16228     16230
     16226     16225     16228     16231     16227     16225     16228     16229
     16227     16225     16228     16230     16227     16225     16228     16231
     16228     16231     16234     16235     16228     16231     16234     16236
     16228     16231     16234     16237     16229     16228     16231     16232
     16229     16228     16231     16233     16229     16228     16231     16234
     16230     16228     16231     16232     16230     16228     16231     16233
     16230     16228     16231     16234     16231     16234     16237     16238
     16231     16234     16237     16239     16231     16234     16237     16240
     16232     16231     16234     16235     16232     16231     16234     16236
     16232     16231     16234     16237     16233     16231     16234     16235
     16233     16231     16234     16236     16233     16231     16234     16237
     16234     16237     16240     16241     16234     16237     16240     16242
     16235     16234     16237     16238     16235     16234     16237     16239
     16235     16234     16237     16240     16236     16234     16237     16238
     16236     16234     16237     16239     16236     16234     16237     16240
     16237     16240     16242     16243     16237     16240     16242     16244
     16238     16237     16240     16241     16238     16237     16240     16242
     16239     16237     16240     16241     16239     16237     16240     16242
     16240     16242     16244     16245     16240     16242     16244     16246
     16240     16242     16244     16247     16241     16240     16242     16243
     16241     16240     16242     16244     16242     16244     16247     16248
     16242     16244     16247     16249     16242     16244     16247     16250
     16243     16242     16244     16245     16243     16242     16244     16246
     16243     16242     16244     16247     16244     16247     16250     16251
     16244     16247     16250     16252     16244     16247     16250     16253
     16245     16244     16247     16248     16245     16244     16247     16249
     16245     16244     16247     16250     16246     16244     16247     16248
     16246     16244     16247     16249     16246     16244     16247     16250
     16247     16250     16253     16254     16247     16250     16253     16255
     16247     16250     16253     16256     16248     16247     16250     16251
     16248     16247     16250     16252     16248     16247     16250     16253
     16249     16247     16250     16251     16249     16247     16250     16252
     16249     16247     16250     16253     16250     16253     16256     16257
     16250     16253     16256     16258     16250     16253     16256     16259
     16251     16250     16253     16254     16251     16250     16253     16255
     16251     16250     16253     16256     16252     16250     16253     16254
     16252     16250     16253     16255     16252     16250     16253     16256
     16253     16256     16259     16260     16253     16256     16259     16261
     16253     16256     16259     16262     16254     16253     16256     16257
     16254     16253     16256     16258     16254     16253     16256     16259
     16255     16253     16256     16257     16255     16253     16256     16258
     16255     16253     16256     16259     16256     16259     16262     16263
     16256     16259     16262     16264     16256     16259     16262     16265
     16257     16256     16259     16260     16257     16256     16259     16261
     16257     16256     16259     16262     16258     16256     16259     16260
     16258     16256     16259     16261     16258     16256     16259     16262
     16259     16262     16265     16266     16259     16262     16265     16267
     16259     16262     16265     16268     16260     16259     16262     16263
     16260     16259     16262     16264     16260     16259     16262     16265
     16261     16259     16262     16263     16261     16259     16262     16264
     16261     16259     16262     16265     16263     16262     16265     16266
     16263     16262     16265     16267     16263     16262     16265     16268
     16264     16262     16265     16266     16264     16262     16265     16267
     16264     16262     16265     16268     16269     16272     16275     16276
     16269     16272     16275     16277     16269     16272     16275     16278
     16270     16269     16272     16273     16270     16269     16272     16274
     16270     16269     16272     16275     16271     16269     16272     16273
     16271     16269     16272     16274     16271     16269     16272     16275
     16272     16275     16278     16279     16272     16275     16278     16280
     16272     16275     16278     16281     16273     16272     16275     16276
     16273     16272     16275     16277     16273     16272     16275     16278
     16274     16272     16275     16276     16274     16272     16275     16277
     16274     16272     16275     16278     16275     16278     16281     16282
     16275     16278     16281     16283     16275     16278     16281     16284
     16276     16275     16278     16279     16276     16275     16278     16280
     16276     16275     16278     16281     16277     16275     16278     16279
     16277     16275     16278     16280     16277     16275     16278     16281
     16278     16281     16284     16285     16278     16281     16284     16286
     16278     16281     16284     16287     16279     16278     16281     16282
     16279     16278     16281     16283     16279     16278     16281     16284
     16280     16278     16281     16282     16280     16278     16281     16283
     16280     16278     16281     16284     16281     16284     16287     16288
     16281     16284     16287     16289     16282     16281     16284     16285
     16282     16281     16284     16286     16282     16281     16284     16287
     16283     16281     16284     16285     16283     16281     16284     16286
     16283     16281     16284     16287     16284     16287     16289     16290
     16284     16287     16289     16291     16285     16284     16287     16288
     16285     16284     16287     16289     16286     16284     16287     16288
     16286     16284     16287     16289     16287     16289     16291     16292
     16287     16289     16291     16293     16287     16289     16291     16294
     16288     16287     16289     16290     16288     16287     16289     16291
     16289     16291     16294     16295     16289     16291     16294     16296
     16289     16291     16294     16297     16290     16289     16291     16292
     16290     16289     16291     16293     16290     16289     16291     16294
     16291     16294     16297     16298     16291     16294     16297     16299
     16291     16294     16297     16300     16292     16291     16294     16295
     16292     16291     16294     16296     16292     16291     16294     16297
     16293     16291     16294     16295     16293     16291     16294     16296
     16293     16291     16294     16297     16294     16297     16300     16301
     16294     16297     16300     16302     16294     16297     16300     16303
     16295     16294     16297     16298     16295     16294     16297     16299
     16295     16294     16297     16300     16296     16294     16297     16298
     16296     16294     16297     16299     16296     16294     16297     16300
     16297     16300     16303     16304     16297     16300     16303     16305
     16297     16300     16303     16306     16298     16297     16300     16301
     16298     16297     16300     16302     16298     16297     16300     16303
     16299     16297     16300     16301     16299     16297     16300     16302
     16299     16297     16300     16303     16300     16303     16306     16307
     16300     16303     16306     16308     16300     16303     16306     16309
     16301     16300     16303     16304     16301     16300     16303     16305
     16301     16300     16303     16306     16302     16300     16303     16304
     16302     16300     16303     16305     16302     16300     16303     16306
     16303     16306     16309     16310     16303     16306     16309     16311
     16303     16306     16309     16312     16304     16303     16306     16307
     16304     16303     16306     16308     16304     16303     16306     16309
     16305     16303     16306     16307     16305     16303     16306     16308
     16305     16303     16306     16309     16306     16309     16312     16313
     16306     16309     16312     16314     16306     16309     16312     16315
     16307     16306     16309     16310     16307     16306     16309     16311
     16307     16306     16309     16312     16308     16306     16309     16310
     16308     16306     16309     16311     16308     16306     16309     16312
     16310     16309     16312     16313     16310     16309     16312     16314
     16310     16309     16312     16315     16311     16309     16312     16313
     16311     16309     16312     16314     16311     16309     16312     16315
     16316     16329     16332     16333     16316     16329     16332     16334
     16316     16329     16332     16339     16317     16316     16321     16322
     16317     16316     16321     16323     16317     16316     16321     16324
     16317     16316     16325     16326     16317     16316     16325     16327
     16317     16316     16325     16328     16317     16316     16329     16330
     16317     16316     16329     16331     16317     16316     16329     16332
     16318     16317     16316     16321     16318     16317     16316     16325
     16318     16317     16316     16329     16319     16317     16316     16321
     16319     16317     16316     16325     16319     16317     16316     16329
     16320     16317     16316     16321     16320     16317     16316     16325
     16320     16317     16316     16329     16321     16316     16325     16326
     16321     16316     16325     16327     16321     16316     16325     16328
     16321     16316     16329     16330     16321     16316     16329     16331
     16321     16316     16329     16332     16322     16321     16316     16325
     16322     16321     16316     16329     16323     16321     16316     16325
     16323     16321     16316     16329     16324     16321     16316     16325
     16324     16321     16316     16329     16325     16316     16329     16330
     16325     16316     16329     16331     16325     16316     16329     16332
     16326     16325     16316     16329     16327     16325     16316     16329
     16328     16325     16316     16329     16329     16332     16339     16335
     16330     16329     16332     16333     16330     16329     16332     16334
     16330     16329     16332     16339     16331     16329     16332     16333
     16331     16329     16332     16334     16331     16329     16332     16339
     16332     16339     16335     16336     16332     16339     16335     16337
     16332     16339     16335     16338     16333     16332     16339     16335
     16334     16332     16339     16335     16335     16338     16340     16341
     16335     16338     16340     16342     16335     16338     16340     16345
     16336     16335     16338     16340     16337     16335     16338     16340
     16338     16340     16345     16343     16338     16340     16345     16346
     16338     16340     16345     16347     16339     16335     16338     16340
     16340     16345     16343     16344     16340     16345     16343     16395
     16340     16345     16347     16348     16340     16345     16347     16349
     16340     16345     16347     16351     16341     16340     16345     16343
     16341     16340     16345     16346     16341     16340     16345     16347
     16342     16340     16345     16343     16342     16340     16345     16346
     16342     16340     16345     16347     16343     16345     16347     16348
     16343     16345     16347     16349     16343     16345     16347     16351
     16343     16395     16397     16398     16343     16395     16397     16399
     16343     16395     16397     16400     16344     16343     16345     16346
     16344     16343     16345     16347     16344     16343     16395     16396
     16344     16343     16395     16397     16345     16343     16395     16396
     16345     16343     16395     16397     16345     16347     16349     16350
     16345     16347     16351     16352     16345     16347     16351     16353
     16346     16345     16343     16395     16346     16345     16347     16348
     16346     16345     16347     16349     16346     16345     16347     16351
     16347     16345     16343     16395     16347     16351     16353     16354
     16347     16351     16353     16355     16348     16347     16349     16350
     16348     16347     16351     16352     16348     16347     16351     16353
     16349     16347     16351     16352     16349     16347     16351     16353
     16350     16349     16347     16351     16351     16353     16355     16356
     16351     16353     16355     16357     16351     16353     16355     16358
     16352     16351     16353     16354     16352     16351     16353     16355
     16353     16355     16358     16359     16353     16355     16358     16360
     16353     16355     16358     16361     16354     16353     16355     16356
     16354     16353     16355     16357     16354     16353     16355     16358
     16355     16358     16361     16362     16355     16358     16361     16363
     16355     16358     16361     16364     16356     16355     16358     16359
     16356     16355     16358     16360     16356     16355     16358     16361
     16357     16355     16358     16359     16357     16355     16358     16360
     16357     16355     16358     16361     16358     16361     16364     16365
     16358     16361     16364     16366     16358     16361     16364     16367
     16359     16358     16361     16362     16359     16358     16361     16363
     16359     16358     16361     16364     16360     16358     16361     16362
     16360     16358     16361     16363     16360     16358     16361     16364
     16361     16364     16367     16368     16361     16364     16367     16369
     16361     16364     16367     16370     16362     16361     16364     16365
     16362     16361     16364     16366     16362     16361     16364     16367
     16363     16361     16364     16365     16363     16361     16364     16366
     16363     16361     16364     16367     16364     16367     16370     16371
     16364     16367     16370     16372     16364     16367     16370     16373
     16365     16364     16367     16368     16365     16364     16367     16369
     16365     16364     16367     16370     16366     16364     16367     16368
     16366     16364     16367     16369     16366     16364     16367     16370
     16367     16370     16373     16374     16367     16370     16373     16375
     16367     16370     16373     16376     16368     16367     16370     16371
     16368     16367     16370     16372     16368     16367     16370     16373
     16369     16367     16370     16371     16369     16367     16370     16372
     16369     16367     16370     16373     16370     16373     16376     16377
     16370     16373     16376     16378     16370     16373     16376     16379
     16371     16370     16373     16374     16371     16370     16373     16375
     16371     16370     16373     16376     16372     16370     16373     16374
     16372     16370     16373     16375     16372     16370     16373     16376
     16373     16376     16379     16380     16373     16376     16379     16381
     16373     16376     16379     16382     16374     16373     16376     16377
     16374     16373     16376     16378     16374     16373     16376     16379
     16375     16373     16376     16377     16375     16373     16376     16378
     16375     16373     16376     16379     16376     16379     16382     16383
     16376     16379     16382     16384     16376     16379     16382     16385
     16377     16376     16379     16380     16377     16376     16379     16381
     16377     16376     16379     16382     16378     16376     16379     16380
     16378     16376     16379     16381     16378     16376     16379     16382
     16379     16382     16385     16386     16379     16382     16385     16387
     16379     16382     16385     16388     16380     16379     16382     16383
     16380     16379     16382     16384     16380     16379     16382     16385
     16381     16379     16382     16383     16381     16379     16382     16384
     16381     16379     16382     16385     16382     16385     16388     16389
     16382     16385     16388     16390     16382     16385     16388     16391
     16383     16382     16385     16386     16383     16382     16385     16387
     16383     16382     16385     16388     16384     16382     16385     16386
     16384     16382     16385     16387     16384     16382     16385     16388
     16385     16388     16391     16392     16385     16388     16391     16393
     16385     16388     16391     16394     16386     16385     16388     16389
     16386     16385     16388     16390     16386     16385     16388     16391
     16387     16385     16388     16389     16387     16385     16388     16390
     16387     16385     16388     16391     16389     16388     16391     16392
     16389     16388     16391     16393     16389     16388     16391     16394
     16390     16388     16391     16392     16390     16388     16391     16393
     16390     16388     16391     16394     16395     16397     16400     16401
     16395     16397     16400     16402     16395     16397     16400     16403
     16396     16395     16397     16398     16396     16395     16397     16399
     16396     16395     16397     16400     16397     16400     16403     16404
     16397     16400     16403     16405     16397     16400     16403     16406
     16398     16397     16400     16401     16398     16397     16400     16402
     16398     16397     16400     16403     16399     16397     16400     16401
     16399     16397     16400     16402     16399     16397     16400     16403
     16400     16403     16406     16407     16400     16403     16406     16408
     16400     16403     16406     16409     16401     16400     16403     16404
     16401     16400     16403     16405     16401     16400     16403     16406
     16402     16400     16403     16404     16402     16400     16403     16405
     16402     16400     16403     16406     16403     16406     16409     16410
     16403     16406     16409     16411     16403     16406     16409     16412
     16404     16403     16406     16407     16404     16403     16406     16408
     16404     16403     16406     16409     16405     16403     16406     16407
     16405     16403     16406     16408     16405     16403     16406     16409
     16406     16409     16412     16413     16406     16409     16412     16414
     16406     16409     16412     16415     16407     16406     16409     16410
     16407     16406     16409     16411     16407     16406     16409     16412
     16408     16406     16409     16410     16408     16406     16409     16411
     16408     16406     16409     16412     16409     16412     16415     16416
     16409     16412     16415     16417     16409     16412     16415     16418
     16410     16409     16412     16413     16410     16409     16412     16414
     16410     16409     16412     16415     16411     16409     16412     16413
     16411     16409     16412     16414     16411     16409     16412     16415
     16412     16415     16418     16419     16412     16415     16418     16420
     16412     16415     16418     16421     16413     16412     16415     16416
     16413     16412     16415     16417     16413     16412     16415     16418
     16414     16412     16415     16416     16414     16412     16415     16417
     16414     16412     16415     16418     16415     16418     16421     16422
     16415     16418     16421     16423     16415     16418     16421     16424
     16416     16415     16418     16419     16416     16415     16418     16420
     16416     16415     16418     16421     16417     16415     16418     16419
     16417     16415     16418     16420     16417     16415     16418     16421
     16418     16421     16424     16425     16418     16421     16424     16426
     16418     16421     16424     16427     16419     16418     16421     16422
     16419     16418     16421     16423     16419     16418     16421     16424
     16420     16418     16421     16422     16420     16418     16421     16423
     16420     16418     16421     16424     16421     16424     16427     16428
     16421     16424     16427     16429     16421     16424     16427     16430
     16422     16421     16424     16425     16422     16421     16424     16426
     16422     16421     16424     16427     16423     16421     16424     16425
     16423     16421     16424     16426     16423     16421     16424     16427
     16424     16427     16430     16431     16424     16427     16430     16432
     16424     16427     16430     16433     16425     16424     16427     16428
     16425     16424     16427     16429     16425     16424     16427     16430
     16426     16424     16427     16428     16426     16424     16427     16429
     16426     16424     16427     16430     16427     16430     16433     16434
     16427     16430     16433     16435     16427     16430     16433     16436
     16428     16427     16430     16431     16428     16427     16430     16432
     16428     16427     16430     16433     16429     16427     16430     16431
     16429     16427     16430     16432     16429     16427     16430     16433
     16430     16433     16436     16437     16430     16433     16436     16438
     16430     16433     16436     16439     16431     16430     16433     16434
     16431     16430     16433     16435     16431     16430     16433     16436
     16432     16430     16433     16434     16432     16430     16433     16435
     16432     16430     16433     16436     16433     16436     16439     16440
     16433     16436     16439     16441     16433     16436     16439     16442
     16434     16433     16436     16437     16434     16433     16436     16438
     16434     16433     16436     16439     16435     16433     16436     16437
     16435     16433     16436     16438     16435     16433     16436     16439
     16436     16439     16442     16443     16436     16439     16442     16444
     16436     16439     16442     16445     16437     16436     16439     16440
     16437     16436     16439     16441     16437     16436     16439     16442
     16438     16436     16439     16440     16438     16436     16439     16441
     16438     16436     16439     16442     16439     16442     16445     16446
     16439     16442     16445     16447     16439     16442     16445     16448
     16440     16439     16442     16443     16440     16439     16442     16444
     16440     16439     16442     16445     16441     16439     16442     16443
     16441     16439     16442     16444     16441     16439     16442     16445
     16442     16445     16448     16449     16442     16445     16448     16450
     16442     16445     16448     16451     16443     16442     16445     16446
     16443     16442     16445     16447     16443     16442     16445     16448
     16444     16442     16445     16446     16444     16442     16445     16447
     16444     16442     16445     16448     16445     16448     16451     16452
     16445     16448     16451     16453     16445     16448     16451     16454
     16446     16445     16448     16449     16446     16445     16448     16450
     16446     16445     16448     16451     16447     16445     16448     16449
     16447     16445     16448     16450     16447     16445     16448     16451
     16448     16451     16454     16455     16448     16451     16454     16456
     16448     16451     16454     16457     16449     16448     16451     16452
     16449     16448     16451     16453     16449     16448     16451     16454
     16450     16448     16451     16452     16450     16448     16451     16453
     16450     16448     16451     16454     16451     16454     16457     16458
     16451     16454     16457     16459     16451     16454     16457     16460
     16452     16451     16454     16455     16452     16451     16454     16456
     16452     16451     16454     16457     16453     16451     16454     16455
     16453     16451     16454     16456     16453     16451     16454     16457
     16454     16457     16460     16461     16454     16457     16460     16462
     16454     16457     16460     16463     16455     16454     16457     16458
     16455     16454     16457     16459     16455     16454     16457     16460
     16456     16454     16457     16458     16456     16454     16457     16459
     16456     16454     16457     16460     16458     16457     16460     16461
     16458     16457     16460     16462     16458     16457     16460     16463
     16459     16457     16460     16461     16459     16457     16460     16462
     16459     16457     16460     16463     16464     16468     16471     16472
     16464     16468     16471     16473     16464     16468     16471     16478
     16465     16464     16468     16469     16465     16464     16468     16470
     16465     16464     16468     16471     16466     16464     16468     16469
     16466     16464     16468     16470     16466     16464     16468     16471
     16467     16464     16468     16469     16467     16464     16468     16470
     16467     16464     16468     16471     16468     16471     16478     16474
     16469     16468     16471     16472     16469     16468     16471     16473
     16469     16468     16471     16478     16470     16468     16471     16472
     16470     16468     16471     16473     16470     16468     16471     16478
     16471     16478     16474     16475     16471     16478     16474     16476
     16471     16478     16474     16477     16472     16471     16478     16474
     16473     16471     16478     16474     16474     16477     16479     16480
     16474     16477     16479     16481     16474     16477     16479     16482
     16475     16474     16477     16479     16476     16474     16477     16479
     16477     16479     16482     16483     16477     16479     16482     16484
     16477     16479     16482     16490     16478     16474     16477     16479
     16479     16482     16484     16485     16479     16482     16490     16491
     16479     16482     16490     16492     16479     16482     16490     16493
     16480     16479     16482     16483     16480     16479     16482     16484
     16480     16479     16482     16490     16481     16479     16482     16483
     16481     16479     16482     16484     16481     16479     16482     16490
     16482     16484     16485     16486     16482     16484     16485     16487
     16482     16490     16493     16494     16483     16482     16484     16485
     16483     16482     16490     16491     16483     16482     16490     16492
     16483     16482     16490     16493     16484     16482     16490     16491
     16484     16482     16490     16492     16484     16482     16490     16493
     16484     16485     16487     16488     16484     16485     16487     16489
     16484     16485     16487     16499     16485     16484     16482     16490
     16485     16487     16499     16500     16485     16487     16499     16501
     16485     16487     16499     16502     16486     16485     16487     16488
     16486     16485     16487     16489     16486     16485     16487     16499
     16487     16499     16502     16503     16487     16499     16502     16504
     16487     16499     16502     16505     16488     16487     16499     16500
     16488     16487     16499     16501     16488     16487     16499     16502
     16489     16487     16499     16500     16489     16487     16499     16501
     16489     16487     16499     16502     16490     16493     16494     16495
     16490     16493     16494     16496     16491     16490     16493     16494
     16492     16490     16493     16494     16493     16494     16496     16497
     16493     16494     16496     16498     16493     16494     16496     16546
     16494     16496     16546     16547     16494     16496     16546     16548
     16494     16496     16546     16549     16495     16494     16496     16497
     16495     16494     16496     16498     16495     16494     16496     16546
     16496     16546     16549     16550     16496     16546     16549     16551
     16496     16546     16549     16552     16497     16496     16546     16547
     16497     16496     16546     16548     16497     16496     16546     16549
     16498     16496     16546     16547     16498     16496     16546     16548
     16498     16496     16546     16549     16499     16502     16505     16506
     16499     16502     16505     16507     16499     16502     16505     16508
     16500     16499     16502     16503     16500     16499     16502     16504
     16500     16499     16502     16505     16501     16499     16502     16503
     16501     16499     16502     16504     16501     16499     16502     16505
     16502     16505     16508     16509     16502     16505     16508     16510
     16502     16505     16508     16511     16503     16502     16505     16506
     16503     16502     16505     16507     16503     16502     16505     16508
     16504     16502     16505     16506     16504     16502     16505     16507
     16504     16502     16505     16508     16505     16508     16511     16512
     16505     16508     16511     16513     16505     16508     16511     16514
     16506     16505     16508     16509     16506     16505     16508     16510
     16506     16505     16508     16511     16507     16505     16508     16509
     16507     16505     16508     16510     16507     16505     16508     16511
     16508     16511     16514     16515     16508     16511     16514     16516
     16508     16511     16514     16517     16509     16508     16511     16512
     16509     16508     16511     16513     16509     16508     16511     16514
     16510     16508     16511     16512     16510     16508     16511     16513
     16510     16508     16511     16514     16511     16514     16517     16518
     16511     16514     16517     16519     16512     16511     16514     16515
     16512     16511     16514     16516     16512     16511     16514     16517
     16513     16511     16514     16515     16513     16511     16514     16516
     16513     16511     16514     16517     16514     16517     16519     16520
     16514     16517     16519     16521     16515     16514     16517     16518
     16515     16514     16517     16519     16516     16514     16517     16518
     16516     16514     16517     16519     16517     16519     16521     16522
     16517     16519     16521     16523     16517     16519     16521     16524
     16518     16517     16519     16520     16518     16517     16519     16521
     16519     16521     16524     16525     16519     16521     16524     16526
     16519     16521     16524     16527     16520     16519     16521     16522
     16520     16519     16521     16523     16520     16519     16521     16524
     16521     16524     16527     16528     16521     16524     16527     16529
     16521     16524     16527     16530     16522     16521     16524     16525
     16522     16521     16524     16526     16522     16521     16524     16527
     16523     16521     16524     16525     16523     16521     16524     16526
     16523     16521     16524     16527     16524     16527     16530     16531
     16524     16527     16530     16532     16524     16527     16530     16533
     16525     16524     16527     16528     16525     16524     16527     16529
     16525     16524     16527     16530     16526     16524     16527     16528
     16526     16524     16527     16529     16526     16524     16527     16530
     16527     16530     16533     16534     16527     16530     16533     16535
     16527     16530     16533     16536     16528     16527     16530     16531
     16528     16527     16530     16532     16528     16527     16530     16533
     16529     16527     16530     16531     16529     16527     16530     16532
     16529     16527     16530     16533     16530     16533     16536     16537
     16530     16533     16536     16538     16530     16533     16536     16539
     16531     16530     16533     16534     16531     16530     16533     16535
     16531     16530     16533     16536     16532     16530     16533     16534
     16532     16530     16533     16535     16532     16530     16533     16536
     16533     16536     16539     16540     16533     16536     16539     16541
     16533     16536     16539     16542     16534     16533     16536     16537
     16534     16533     16536     16538     16534     16533     16536     16539
     16535     16533     16536     16537     16535     16533     16536     16538
     16535     16533     16536     16539     16536     16539     16542     16543
     16536     16539     16542     16544     16536     16539     16542     16545
     16537     16536     16539     16540     16537     16536     16539     16541
     16537     16536     16539     16542     16538     16536     16539     16540
     16538     16536     16539     16541     16538     16536     16539     16542
     16540     16539     16542     16543     16540     16539     16542     16544
     16540     16539     16542     16545     16541     16539     16542     16543
     16541     16539     16542     16544     16541     16539     16542     16545
     16546     16549     16552     16553     16546     16549     16552     16554
     16546     16549     16552     16555     16547     16546     16549     16550
     16547     16546     16549     16551     16547     16546     16549     16552
     16548     16546     16549     16550     16548     16546     16549     16551
     16548     16546     16549     16552     16549     16552     16555     16556
     16549     16552     16555     16557     16549     16552     16555     16558
     16550     16549     16552     16553     16550     16549     16552     16554
     16550     16549     16552     16555     16551     16549     16552     16553
     16551     16549     16552     16554     16551     16549     16552     16555
     16552     16555     16558     16559     16552     16555     16558     16560
     16552     16555     16558     16561     16553     16552     16555     16556
     16553     16552     16555     16557     16553     16552     16555     16558
     16554     16552     16555     16556     16554     16552     16555     16557
     16554     16552     16555     16558     16555     16558     16561     16562
     16555     16558     16561     16563     16555     16558     16561     16564
     16556     16555     16558     16559     16556     16555     16558     16560
     16556     16555     16558     16561     16557     16555     16558     16559
     16557     16555     16558     16560     16557     16555     16558     16561
     16558     16561     16564     16565     16558     16561     16564     16566
     16559     16558     16561     16562     16559     16558     16561     16563
     16559     16558     16561     16564     16560     16558     16561     16562
     16560     16558     16561     16563     16560     16558     16561     16564
     16561     16564     16566     16567     16561     16564     16566     16568
     16562     16561     16564     16565     16562     16561     16564     16566
     16563     16561     16564     16565     16563     16561     16564     16566
     16564     16566     16568     16569     16564     16566     16568     16570
     16564     16566     16568     16571     16565     16564     16566     16567
     16565     16564     16566     16568     16566     16568     16571     16572
     16566     16568     16571     16573     16566     16568     16571     16574
     16567     16566     16568     16569     16567     16566     16568     16570
     16567     16566     16568     16571     16568     16571     16574     16575
     16568     16571     16574     16576     16568     16571     16574     16577
     16569     16568     16571     16572     16569     16568     16571     16573
     16569     16568     16571     16574     16570     16568     16571     16572
     16570     16568     16571     16573     16570     16568     16571     16574
     16571     16574     16577     16578     16571     16574     16577     16579
     16571     16574     16577     16580     16572     16571     16574     16575
     16572     16571     16574     16576     16572     16571     16574     16577
     16573     16571     16574     16575     16573     16571     16574     16576
     16573     16571     16574     16577     16574     16577     16580     16581
     16574     16577     16580     16582     16574     16577     16580     16583
     16575     16574     16577     16578     16575     16574     16577     16579
     16575     16574     16577     16580     16576     16574     16577     16578
     16576     16574     16577     16579     16576     16574     16577     16580
     16577     16580     16583     16584     16577     16580     16583     16585
     16577     16580     16583     16586     16578     16577     16580     16581
     16578     16577     16580     16582     16578     16577     16580     16583
     16579     16577     16580     16581     16579     16577     16580     16582
     16579     16577     16580     16583     16580     16583     16586     16587
     16580     16583     16586     16588     16580     16583     16586     16589
     16581     16580     16583     16584     16581     16580     16583     16585
     16581     16580     16583     16586     16582     16580     16583     16584
     16582     16580     16583     16585     16582     16580     16583     16586
     16583     16586     16589     16590     16583     16586     16589     16591
     16583     16586     16589     16592     16584     16583     16586     16587
     16584     16583     16586     16588     16584     16583     16586     16589
     16585     16583     16586     16587     16585     16583     16586     16588
     16585     16583     16586     16589     16587     16586     16589     16590
     16587     16586     16589     16591     16587     16586     16589     16592
     16588     16586     16589     16590     16588     16586     16589     16591
     16588     16586     16589     16592     16593     16606     16609     16610
     16593     16606     16609     16611     16593     16606     16609     16616
     16594     16593     16598     16599     16594     16593     16598     16600
     16594     16593     16598     16601     16594     16593     16602     16603
     16594     16593     16602     16604     16594     16593     16602     16605
     16594     16593     16606     16607     16594     16593     16606     16608
     16594     16593     16606     16609     16595     16594     16593     16598
     16595     16594     16593     16602     16595     16594     16593     16606
     16596     16594     16593     16598     16596     16594     16593     16602
     16596     16594     16593     16606     16597     16594     16593     16598
     16597     16594     16593     16602     16597     16594     16593     16606
     16598     16593     16602     16603     16598     16593     16602     16604
     16598     16593     16602     16605     16598     16593     16606     16607
     16598     16593     16606     16608     16598     16593     16606     16609
     16599     16598     16593     16602     16599     16598     16593     16606
     16600     16598     16593     16602     16600     16598     16593     16606
     16601     16598     16593     16602     16601     16598     16593     16606
     16602     16593     16606     16607     16602     16593     16606     16608
     16602     16593     16606     16609     16603     16602     16593     16606
     16604     16602     16593     16606     16605     16602     16593     16606
     16606     16609     16616     16612     16607     16606     16609     16610
     16607     16606     16609     16611     16607     16606     16609     16616
     16608     16606     16609     16610     16608     16606     16609     16611
     16608     16606     16609     16616     16609     16616     16612     16613
     16609     16616     16612     16614     16609     16616     16612     16615
     16610     16609     16616     16612     16611     16609     16616     16612
     16612     16615     16617     16618     16612     16615     16617     16619
     16612     16615     16617     16622     16613     16612     16615     16617
     16614     16612     16615     16617     16615     16617     16622     16620
     16615     16617     16622     16623     16615     16617     16622     16624
     16616     16612     16615     16617     16617     16622     16620     16621
     16617     16622     16620     16672     16617     16622     16624     16625
     16617     16622     16624     16626     16617     16622     16624     16628
     16618     16617     16622     16620     16618     16617     16622     16623
     16618     16617     16622     16624     16619     16617     16622     16620
     16619     16617     16622     16623     16619     16617     16622     16624
     16620     16622     16624     16625     16620     16622     16624     16626
     16620     16622     16624     16628     16620     16672     16674     16675
     16620     16672     16674     16676     16620     16672     16674     16677
     16621     16620     16622     16623     16621     16620     16622     16624
     16621     16620     16672     16673     16621     16620     16672     16674
     16622     16620     16672     16673     16622     16620     16672     16674
     16622     16624     16626     16627     16622     16624     16628     16629
     16622     16624     16628     16630     16623     16622     16620     16672
     16623     16622     16624     16625     16623     16622     16624     16626
     16623     16622     16624     16628     16624     16622     16620     16672
     16624     16628     16630     16631     16624     16628     16630     16632
     16625     16624     16626     16627     16625     16624     16628     16629
     16625     16624     16628     16630     16626     16624     16628     16629
     16626     16624     16628     16630     16627     16626     16624     16628
     16628     16630     16632     16633     16628     16630     16632     16634
     16628     16630     16632     16635     16629     16628     16630     16631
     16629     16628     16630     16632     16630     16632     16635     16636
     16630     16632     16635     16637     16630     16632     16635     16638
     16631     16630     16632     16633     16631     16630     16632     16634
     16631     16630     16632     16635     16632     16635     16638     16639
     16632     16635     16638     16640     16632     16635     16638     16641
     16633     16632     16635     16636     16633     16632     16635     16637
     16633     16632     16635     16638     16634     16632     16635     16636
     16634     16632     16635     16637     16634     16632     16635     16638
     16635     16638     16641     16642     16635     16638     16641     16643
     16635     16638     16641     16644     16636     16635     16638     16639
     16636     16635     16638     16640     16636     16635     16638     16641
     16637     16635     16638     16639     16637     16635     16638     16640
     16637     16635     16638     16641     16638     16641     16644     16645
     16638     16641     16644     16646     16638     16641     16644     16647
     16639     16638     16641     16642     16639     16638     16641     16643
     16639     16638     16641     16644     16640     16638     16641     16642
     16640     16638     16641     16643     16640     16638     16641     16644
     16641     16644     16647     16648     16641     16644     16647     16649
     16641     16644     16647     16650     16642     16641     16644     16645
     16642     16641     16644     16646     16642     16641     16644     16647
     16643     16641     16644     16645     16643     16641     16644     16646
     16643     16641     16644     16647     16644     16647     16650     16651
     16644     16647     16650     16652     16644     16647     16650     16653
     16645     16644     16647     16648     16645     16644     16647     16649
     16645     16644     16647     16650     16646     16644     16647     16648
     16646     16644     16647     16649     16646     16644     16647     16650
     16647     16650     16653     16654     16647     16650     16653     16655
     16647     16650     16653     16656     16648     16647     16650     16651
     16648     16647     16650     16652     16648     16647     16650     16653
     16649     16647     16650     16651     16649     16647     16650     16652
     16649     16647     16650     16653     16650     16653     16656     16657
     16650     16653     16656     16658     16650     16653     16656     16659
     16651     16650     16653     16654     16651     16650     16653     16655
     16651     16650     16653     16656     16652     16650     16653     16654
     16652     16650     16653     16655     16652     16650     16653     16656
     16653     16656     16659     16660     16653     16656     16659     16661
     16653     16656     16659     16662     16654     16653     16656     16657
     16654     16653     16656     16658     16654     16653     16656     16659
     16655     16653     16656     16657     16655     16653     16656     16658
     16655     16653     16656     16659     16656     16659     16662     16663
     16656     16659     16662     16664     16656     16659     16662     16665
     16657     16656     16659     16660     16657     16656     16659     16661
     16657     16656     16659     16662     16658     16656     16659     16660
     16658     16656     16659     16661     16658     16656     16659     16662
     16659     16662     16665     16666     16659     16662     16665     16667
     16659     16662     16665     16668     16660     16659     16662     16663
     16660     16659     16662     16664     16660     16659     16662     16665
     16661     16659     16662     16663     16661     16659     16662     16664
     16661     16659     16662     16665     16662     16665     16668     16669
     16662     16665     16668     16670     16662     16665     16668     16671
     16663     16662     16665     16666     16663     16662     16665     16667
     16663     16662     16665     16668     16664     16662     16665     16666
     16664     16662     16665     16667     16664     16662     16665     16668
     16666     16665     16668     16669     16666     16665     16668     16670
     16666     16665     16668     16671     16667     16665     16668     16669
     16667     16665     16668     16670     16667     16665     16668     16671
     16672     16674     16677     16678     16672     16674     16677     16679
     16672     16674     16677     16680     16673     16672     16674     16675
     16673     16672     16674     16676     16673     16672     16674     16677
     16674     16677     16680     16681     16674     16677     16680     16682
     16674     16677     16680     16683     16675     16674     16677     16678
     16675     16674     16677     16679     16675     16674     16677     16680
     16676     16674     16677     16678     16676     16674     16677     16679
     16676     16674     16677     16680     16677     16680     16683     16684
     16677     16680     16683     16685     16677     16680     16683     16686
     16678     16677     16680     16681     16678     16677     16680     16682
     16678     16677     16680     16683     16679     16677     16680     16681
     16679     16677     16680     16682     16679     16677     16680     16683
     16680     16683     16686     16687     16680     16683     16686     16688
     16680     16683     16686     16689     16681     16680     16683     16684
     16681     16680     16683     16685     16681     16680     16683     16686
     16682     16680     16683     16684     16682     16680     16683     16685
     16682     16680     16683     16686     16683     16686     16689     16690
     16683     16686     16689     16691     16683     16686     16689     16692
     16684     16683     16686     16687     16684     16683     16686     16688
     16684     16683     16686     16689     16685     16683     16686     16687
     16685     16683     16686     16688     16685     16683     16686     16689
     16686     16689     16692     16693     16686     16689     16692     16694
     16686     16689     16692     16695     16687     16686     16689     16690
     16687     16686     16689     16691     16687     16686     16689     16692
     16688     16686     16689     16690     16688     16686     16689     16691
     16688     16686     16689     16692     16689     16692     16695     16696
     16689     16692     16695     16697     16689     16692     16695     16698
     16690     16689     16692     16693     16690     16689     16692     16694
     16690     16689     16692     16695     16691     16689     16692     16693
     16691     16689     16692     16694     16691     16689     16692     16695
     16692     16695     16698     16699     16692     16695     16698     16700
     16692     16695     16698     16701     16693     16692     16695     16696
     16693     16692     16695     16697     16693     16692     16695     16698
     16694     16692     16695     16696     16694     16692     16695     16697
     16694     16692     16695     16698     16695     16698     16701     16702
     16695     16698     16701     16703     16695     16698     16701     16704
     16696     16695     16698     16699     16696     16695     16698     16700
     16696     16695     16698     16701     16697     16695     16698     16699
     16697     16695     16698     16700     16697     16695     16698     16701
     16698     16701     16704     16705     16698     16701     16704     16706
     16698     16701     16704     16707     16699     16698     16701     16702
     16699     16698     16701     16703     16699     16698     16701     16704
     16700     16698     16701     16702     16700     16698     16701     16703
     16700     16698     16701     16704     16701     16704     16707     16708
     16701     16704     16707     16709     16701     16704     16707     16710
     16702     16701     16704     16705     16702     16701     16704     16706
     16702     16701     16704     16707     16703     16701     16704     16705
     16703     16701     16704     16706     16703     16701     16704     16707
     16704     16707     16710     16711     16704     16707     16710     16712
     16704     16707     16710     16713     16705     16704     16707     16708
     16705     16704     16707     16709     16705     16704     16707     16710
     16706     16704     16707     16708     16706     16704     16707     16709
     16706     16704     16707     16710     16707     16710     16713     16714
     16707     16710     16713     16715     16707     16710     16713     16716
     16708     16707     16710     16711     16708     16707     16710     16712
     16708     16707     16710     16713     16709     16707     16710     16711
     16709     16707     16710     16712     16709     16707     16710     16713
     16710     16713     16716     16717     16710     16713     16716     16718
     16710     16713     16716     16719     16711     16710     16713     16714
     16711     16710     16713     16715     16711     16710     16713     16716
     16712     16710     16713     16714     16712     16710     16713     16715
     16712     16710     16713     16716     16713     16716     16719     16720
     16713     16716     16719     16721     16713     16716     16719     16722
     16714     16713     16716     16717     16714     16713     16716     16718
     16714     16713     16716     16719     16715     16713     16716     16717
     16715     16713     16716     16718     16715     16713     16716     16719
     16716     16719     16722     16723     16716     16719     16722     16724
     16716     16719     16722     16725     16717     16716     16719     16720
     16717     16716     16719     16721     16717     16716     16719     16722
     16718     16716     16719     16720     16718     16716     16719     16721
     16718     16716     16719     16722     16719     16722     16725     16726
     16719     16722     16725     16727     16719     16722     16725     16728
     16720     16719     16722     16723     16720     16719     16722     16724
     16720     16719     16722     16725     16721     16719     16722     16723
     16721     16719     16722     16724     16721     16719     16722     16725
     16722     16725     16728     16729     16722     16725     16728     16730
     16722     16725     16728     16731     16723     16722     16725     16726
     16723     16722     16725     16727     16723     16722     16725     16728
     16724     16722     16725     16726     16724     16722     16725     16727
     16724     16722     16725     16728     16725     16728     16731     16732
     16725     16728     16731     16733     16725     16728     16731     16734
     16726     16725     16728     16729     16726     16725     16728     16730
     16726     16725     16728     16731     16727     16725     16728     16729
     16727     16725     16728     16730     16727     16725     16728     16731
     16728     16731     16734     16735     16728     16731     16734     16736
     16728     16731     16734     16737     16729     16728     16731     16732
     16729     16728     16731     16733     16729     16728     16731     16734
     16730     16728     16731     16732     16730     16728     16731     16733
     16730     16728     16731     16734     16731     16734     16737     16738
     16731     16734     16737     16739     16731     16734     16737     16740
     16732     16731     16734     16735     16732     16731     16734     16736
     16732     16731     16734     16737     16733     16731     16734     16735
     16733     16731     16734     16736     16733     16731     16734     16737
     16735     16734     16737     16738     16735     16734     16737     16739
     16735     16734     16737     16740     16736     16734     16737     16738
     16736     16734     16737     16739     16736     16734     16737     16740
     16741     16742     16757     16758     16741     16742     16757     16759
     16741     16742     16757     16763     16742     16741     16745     16746
     16742     16741     16745     16747     16742     16741     16745     16748
     16742     16741     16749     16750     16742     16741     16749     16751
     16742     16741     16749     16752     16742     16741     16753     16754
     16742     16741     16753     16755     16742     16741     16753     16756
     16742     16757     16763     16760     16743     16742     16741     16745
     16743     16742     16741     16749     16743     16742     16741     16753
     16743     16742     16757     16758     16743     16742     16757     16759
     16743     16742     16757     16763     16744     16742     16741     16745
     16744     16742     16741     16749     16744     16742     16741     16753
     16744     16742     16757     16758     16744     16742     16757     16759
     16744     16742     16757     16763     16745     16741     16742     16757
     16745     16741     16749     16750     16745     16741     16749     16751
     16745     16741     16749     16752     16745     16741     16753     16754
     16745     16741     16753     16755     16745     16741     16753     16756
     16746     16745     16741     16749     16746     16745     16741     16753
     16747     16745     16741     16749     16747     16745     16741     16753
     16748     16745     16741     16749     16748     16745     16741     16753
     16749     16741     16742     16757     16749     16741     16753     16754
     16749     16741     16753     16755     16749     16741     16753     16756
     16750     16749     16741     16753     16751     16749     16741     16753
     16752     16749     16741     16753     16753     16741     16742     16757
     16757     16763     16760     16761     16757     16763     16760     16762
     16757     16763     16760     16764     16758     16757     16763     16760
     16759     16757     16763     16760     16760     16764     16765     16766
     16760     16764     16765     16767     16760     16764     16765     16768
     16761     16760     16764     16765     16762     16760     16764     16765
     16763     16760     16764     16765     16764     16765     16768     16769
     16764     16765     16768     16770     16764     16765     16768     16776
     16765     16768     16770     16771     16765     16768     16776     16777
     16765     16768     16776     16778     16765     16768     16776     16779
     16766     16765     16768     16769     16766     16765     16768     16770
     16766     16765     16768     16776     16767     16765     16768     16769
     16767     16765     16768     16770     16767     16765     16768     16776
     16768     16770     16771     16772     16768     16770     16771     16773
     16768     16776     16779     16780     16769     16768     16770     16771
     16769     16768     16776     16777     16769     16768     16776     16778
     16769     16768     16776     16779     16770     16768     16776     16777
     16770     16768     16776     16778     16770     16768     16776     16779
     16770     16771     16773     16774     16770     16771     16773     16775
     16770     16771     16773     16785     16771     16770     16768     16776
     16771     16773     16785     16786     16771     16773     16785     16787
     16771     16773     16785     16788     16772     16771     16773     16774
     16772     16771     16773     16775     16772     16771     16773     16785
     16773     16785     16788     16789     16773     16785     16788     16790
     16773     16785     16788     16791     16774     16773     16785     16786
     16774     16773     16785     16787     16774     16773     16785     16788
     16775     16773     16785     16786     16775     16773     16785     16787
     16775     16773     16785     16788     16776     16779     16780     16781
     16776     16779     16780     16782     16777     16776     16779     16780
     16778     16776     16779     16780     16779     16780     16782     16783
     16779     16780     16782     16784     16779     16780     16782     16832
     16780     16782     16832     16833     16780     16782     16832     16834
     16780     16782     16832     16835     16781     16780     16782     16783
     16781     16780     16782     16784     16781     16780     16782     16832
     16782     16832     16835     16836     16782     16832     16835     16837
     16782     16832     16835     16838     16783     16782     16832     16833
     16783     16782     16832     16834     16783     16782     16832     16835
     16784     16782     16832     16833     16784     16782     16832     16834
     16784     16782     16832     16835     16785     16788     16791     16792
     16785     16788     16791     16793     16785     16788     16791     16794
     16786     16785     16788     16789     16786     16785     16788     16790
     16786     16785     16788     16791     16787     16785     16788     16789
     16787     16785     16788     16790     16787     16785     16788     16791
     16788     16791     16794     16795     16788     16791     16794     16796
     16788     16791     16794     16797     16789     16788     16791     16792
     16789     16788     16791     16793     16789     16788     16791     16794
     16790     16788     16791     16792     16790     16788     16791     16793
     16790     16788     16791     16794     16791     16794     16797     16798
     16791     16794     16797     16799     16791     16794     16797     16800
     16792     16791     16794     16795     16792     16791     16794     16796
     16792     16791     16794     16797     16793     16791     16794     16795
     16793     16791     16794     16796     16793     16791     16794     16797
     16794     16797     16800     16801     16794     16797     16800     16802
     16794     16797     16800     16803     16795     16794     16797     16798
     16795     16794     16797     16799     16795     16794     16797     16800
     16796     16794     16797     16798     16796     16794     16797     16799
     16796     16794     16797     16800     16797     16800     16803     16804
     16797     16800     16803     16805     16798     16797     16800     16801
     16798     16797     16800     16802     16798     16797     16800     16803
     16799     16797     16800     16801     16799     16797     16800     16802
     16799     16797     16800     16803     16800     16803     16805     16806
     16800     16803     16805     16807     16801     16800     16803     16804
     16801     16800     16803     16805     16802     16800     16803     16804
     16802     16800     16803     16805     16803     16805     16807     16808
     16803     16805     16807     16809     16803     16805     16807     16810
     16804     16803     16805     16806     16804     16803     16805     16807
     16805     16807     16810     16811     16805     16807     16810     16812
     16805     16807     16810     16813     16806     16805     16807     16808
     16806     16805     16807     16809     16806     16805     16807     16810
     16807     16810     16813     16814     16807     16810     16813     16815
     16807     16810     16813     16816     16808     16807     16810     16811
     16808     16807     16810     16812     16808     16807     16810     16813
     16809     16807     16810     16811     16809     16807     16810     16812
     16809     16807     16810     16813     16810     16813     16816     16817
     16810     16813     16816     16818     16810     16813     16816     16819
     16811     16810     16813     16814     16811     16810     16813     16815
     16811     16810     16813     16816     16812     16810     16813     16814
     16812     16810     16813     16815     16812     16810     16813     16816
     16813     16816     16819     16820     16813     16816     16819     16821
     16813     16816     16819     16822     16814     16813     16816     16817
     16814     16813     16816     16818     16814     16813     16816     16819
     16815     16813     16816     16817     16815     16813     16816     16818
     16815     16813     16816     16819     16816     16819     16822     16823
     16816     16819     16822     16824     16816     16819     16822     16825
     16817     16816     16819     16820     16817     16816     16819     16821
     16817     16816     16819     16822     16818     16816     16819     16820
     16818     16816     16819     16821     16818     16816     16819     16822
     16819     16822     16825     16826     16819     16822     16825     16827
     16819     16822     16825     16828     16820     16819     16822     16823
     16820     16819     16822     16824     16820     16819     16822     16825
     16821     16819     16822     16823     16821     16819     16822     16824
     16821     16819     16822     16825     16822     16825     16828     16829
     16822     16825     16828     16830     16822     16825     16828     16831
     16823     16822     16825     16826     16823     16822     16825     16827
     16823     16822     16825     16828     16824     16822     16825     16826
     16824     16822     16825     16827     16824     16822     16825     16828
     16826     16825     16828     16829     16826     16825     16828     16830
     16826     16825     16828     16831     16827     16825     16828     16829
     16827     16825     16828     16830     16827     16825     16828     16831
     16832     16835     16838     16839     16832     16835     16838     16840
     16832     16835     16838     16841     16833     16832     16835     16836
     16833     16832     16835     16837     16833     16832     16835     16838
     16834     16832     16835     16836     16834     16832     16835     16837
     16834     16832     16835     16838     16835     16838     16841     16842
     16835     16838     16841     16843     16835     16838     16841     16844
     16836     16835     16838     16839     16836     16835     16838     16840
     16836     16835     16838     16841     16837     16835     16838     16839
     16837     16835     16838     16840     16837     16835     16838     16841
     16838     16841     16844     16845     16838     16841     16844     16846
     16838     16841     16844     16847     16839     16838     16841     16842
     16839     16838     16841     16843     16839     16838     16841     16844
     16840     16838     16841     16842     16840     16838     16841     16843
     16840     16838     16841     16844     16841     16844     16847     16848
     16841     16844     16847     16849     16841     16844     16847     16850
     16842     16841     16844     16845     16842     16841     16844     16846
     16842     16841     16844     16847     16843     16841     16844     16845
     16843     16841     16844     16846     16843     16841     16844     16847
     16844     16847     16850     16851     16844     16847     16850     16852
     16845     16844     16847     16848     16845     16844     16847     16849
     16845     16844     16847     16850     16846     16844     16847     16848
     16846     16844     16847     16849     16846     16844     16847     16850
     16847     16850     16852     16853     16847     16850     16852     16854
     16848     16847     16850     16851     16848     16847     16850     16852
     16849     16847     16850     16851     16849     16847     16850     16852
     16850     16852     16854     16855     16850     16852     16854     16856
     16850     16852     16854     16857     16851     16850     16852     16853
     16851     16850     16852     16854     16852     16854     16857     16858
     16852     16854     16857     16859     16852     16854     16857     16860
     16853     16852     16854     16855     16853     16852     16854     16856
     16853     16852     16854     16857     16854     16857     16860     16861
     16854     16857     16860     16862     16854     16857     16860     16863
     16855     16854     16857     16858     16855     16854     16857     16859
     16855     16854     16857     16860     16856     16854     16857     16858
     16856     16854     16857     16859     16856     16854     16857     16860
     16857     16860     16863     16864     16857     16860     16863     16865
     16857     16860     16863     16866     16858     16857     16860     16861
     16858     16857     16860     16862     16858     16857     16860     16863
     16859     16857     16860     16861     16859     16857     16860     16862
     16859     16857     16860     16863     16860     16863     16866     16867
     16860     16863     16866     16868     16860     16863     16866     16869
     16861     16860     16863     16864     16861     16860     16863     16865
     16861     16860     16863     16866     16862     16860     16863     16864
     16862     16860     16863     16865     16862     16860     16863     16866
     16863     16866     16869     16870     16863     16866     16869     16871
     16863     16866     16869     16872     16864     16863     16866     16867
     16864     16863     16866     16868     16864     16863     16866     16869
     16865     16863     16866     16867     16865     16863     16866     16868
     16865     16863     16866     16869     16866     16869     16872     16873
     16866     16869     16872     16874     16866     16869     16872     16875
     16867     16866     16869     16870     16867     16866     16869     16871
     16867     16866     16869     16872     16868     16866     16869     16870
     16868     16866     16869     16871     16868     16866     16869     16872
     16869     16872     16875     16876     16869     16872     16875     16877
     16869     16872     16875     16878     16870     16869     16872     16873
     16870     16869     16872     16874     16870     16869     16872     16875
     16871     16869     16872     16873     16871     16869     16872     16874
     16871     16869     16872     16875     16873     16872     16875     16876
     16873     16872     16875     16877     16873     16872     16875     16878
     16874     16872     16875     16876     16874     16872     16875     16877
     16874     16872     16875     16878     16879     16880     16895     16896
     16879     16880     16895     16897     16879     16880     16895     16901
     16880     16879     16883     16884     16880     16879     16883     16885
     16880     16879     16883     16886     16880     16879     16887     16888
     16880     16879     16887     16889     16880     16879     16887     16890
     16880     16879     16891     16892     16880     16879     16891     16893
     16880     16879     16891     16894     16880     16895     16901     16898
     16881     16880     16879     16883     16881     16880     16879     16887
     16881     16880     16879     16891     16881     16880     16895     16896
     16881     16880     16895     16897     16881     16880     16895     16901
     16882     16880     16879     16883     16882     16880     16879     16887
     16882     16880     16879     16891     16882     16880     16895     16896
     16882     16880     16895     16897     16882     16880     16895     16901
     16883     16879     16880     16895     16883     16879     16887     16888
     16883     16879     16887     16889     16883     16879     16887     16890
     16883     16879     16891     16892     16883     16879     16891     16893
     16883     16879     16891     16894     16884     16883     16879     16887
     16884     16883     16879     16891     16885     16883     16879     16887
     16885     16883     16879     16891     16886     16883     16879     16887
     16886     16883     16879     16891     16887     16879     16880     16895
     16887     16879     16891     16892     16887     16879     16891     16893
     16887     16879     16891     16894     16888     16887     16879     16891
     16889     16887     16879     16891     16890     16887     16879     16891
     16891     16879     16880     16895     16895     16901     16898     16899
     16895     16901     16898     16900     16895     16901     16898     16902
     16896     16895     16901     16898     16897     16895     16901     16898
     16898     16902     16903     16904     16898     16902     16903     16905
     16898     16902     16903     16906     16899     16898     16902     16903
     16900     16898     16902     16903     16901     16898     16902     16903
     16902     16903     16906     16907     16902     16903     16906     16908
     16902     16903     16906     16914     16903     16906     16908     16909
     16903     16906     16914     16915     16903     16906     16914     16916
     16903     16906     16914     16917     16904     16903     16906     16907
     16904     16903     16906     16908     16904     16903     16906     16914
     16905     16903     16906     16907     16905     16903     16906     16908
     16905     16903     16906     16914     16906     16908     16909     16910
     16906     16908     16909     16911     16906     16914     16917     16918
     16907     16906     16908     16909     16907     16906     16914     16915
     16907     16906     16914     16916     16907     16906     16914     16917
     16908     16906     16914     16915     16908     16906     16914     16916
     16908     16906     16914     16917     16908     16909     16911     16912
     16908     16909     16911     16913     16908     16909     16911     16923
     16909     16908     16906     16914     16909     16911     16923     16924
     16909     16911     16923     16925     16909     16911     16923     16926
     16910     16909     16911     16912     16910     16909     16911     16913
     16910     16909     16911     16923     16911     16923     16926     16927
     16911     16923     16926     16928     16911     16923     16926     16929
     16912     16911     16923     16924     16912     16911     16923     16925
     16912     16911     16923     16926     16913     16911     16923     16924
     16913     16911     16923     16925     16913     16911     16923     16926
     16914     16917     16918     16919     16914     16917     16918     16920
     16915     16914     16917     16918     16916     16914     16917     16918
     16917     16918     16920     16921     16917     16918     16920     16922
     16917     16918     16920     16970     16918     16920     16970     16971
     16918     16920     16970     16972     16918     16920     16970     16973
     16919     16918     16920     16921     16919     16918     16920     16922
     16919     16918     16920     16970     16920     16970     16973     16974
     16920     16970     16973     16975     16920     16970     16973     16976
     16921     16920     16970     16971     16921     16920     16970     16972
     16921     16920     16970     16973     16922     16920     16970     16971
     16922     16920     16970     16972     16922     16920     16970     16973
     16923     16926     16929     16930     16923     16926     16929     16931
     16923     16926     16929     16932     16924     16923     16926     16927
     16924     16923     16926     16928     16924     16923     16926     16929
     16925     16923     16926     16927     16925     16923     16926     16928
     16925     16923     16926     16929     16926     16929     16932     16933
     16926     16929     16932     16934     16926     16929     16932     16935
     16927     16926     16929     16930     16927     16926     16929     16931
     16927     16926     16929     16932     16928     16926     16929     16930
     16928     16926     16929     16931     16928     16926     16929     16932
     16929     16932     16935     16936     16929     16932     16935     16937
     16929     16932     16935     16938     16930     16929     16932     16933
     16930     16929     16932     16934     16930     16929     16932     16935
     16931     16929     16932     16933     16931     16929     16932     16934
     16931     16929     16932     16935     16932     16935     16938     16939
     16932     16935     16938     16940     16932     16935     16938     16941
     16933     16932     16935     16936     16933     16932     16935     16937
     16933     16932     16935     16938     16934     16932     16935     16936
     16934     16932     16935     16937     16934     16932     16935     16938
     16935     16938     16941     16942     16935     16938     16941     16943
     16936     16935     16938     16939     16936     16935     16938     16940
     16936     16935     16938     16941     16937     16935     16938     16939
     16937     16935     16938     16940     16937     16935     16938     16941
     16938     16941     16943     16944     16938     16941     16943     16945
     16939     16938     16941     16942     16939     16938     16941     16943
     16940     16938     16941     16942     16940     16938     16941     16943
     16941     16943     16945     16946     16941     16943     16945     16947
     16941     16943     16945     16948     16942     16941     16943     16944
     16942     16941     16943     16945     16943     16945     16948     16949
     16943     16945     16948     16950     16943     16945     16948     16951
     16944     16943     16945     16946     16944     16943     16945     16947
     16944     16943     16945     16948     16945     16948     16951     16952
     16945     16948     16951     16953     16945     16948     16951     16954
     16946     16945     16948     16949     16946     16945     16948     16950
     16946     16945     16948     16951     16947     16945     16948     16949
     16947     16945     16948     16950     16947     16945     16948     16951
     16948     16951     16954     16955     16948     16951     16954     16956
     16948     16951     16954     16957     16949     16948     16951     16952
     16949     16948     16951     16953     16949     16948     16951     16954
     16950     16948     16951     16952     16950     16948     16951     16953
     16950     16948     16951     16954     16951     16954     16957     16958
     16951     16954     16957     16959     16951     16954     16957     16960
     16952     16951     16954     16955     16952     16951     16954     16956
     16952     16951     16954     16957     16953     16951     16954     16955
     16953     16951     16954     16956     16953     16951     16954     16957
     16954     16957     16960     16961     16954     16957     16960     16962
     16954     16957     16960     16963     16955     16954     16957     16958
     16955     16954     16957     16959     16955     16954     16957     16960
     16956     16954     16957     16958     16956     16954     16957     16959
     16956     16954     16957     16960     16957     16960     16963     16964
     16957     16960     16963     16965     16957     16960     16963     16966
     16958     16957     16960     16961     16958     16957     16960     16962
     16958     16957     16960     16963     16959     16957     16960     16961
     16959     16957     16960     16962     16959     16957     16960     16963
     16960     16963     16966     16967     16960     16963     16966     16968
     16960     16963     16966     16969     16961     16960     16963     16964
     16961     16960     16963     16965     16961     16960     16963     16966
     16962     16960     16963     16964     16962     16960     16963     16965
     16962     16960     16963     16966     16964     16963     16966     16967
     16964     16963     16966     16968     16964     16963     16966     16969
     16965     16963     16966     16967     16965     16963     16966     16968
     16965     16963     16966     16969     16970     16973     16976     16977
     16970     16973     16976     16978     16970     16973     16976     16979
     16971     16970     16973     16974     16971     16970     16973     16975
     16971     16970     16973     16976     16972     16970     16973     16974
     16972     16970     16973     16975     16972     16970     16973     16976
     16973     16976     16979     16980     16973     16976     16979     16981
     16973     16976     16979     16982     16974     16973     16976     16977
     16974     16973     16976     16978     16974     16973     16976     16979
     16975     16973     16976     16977     16975     16973     16976     16978
     16975     16973     16976     16979     16976     16979     16982     16983
     16976     16979     16982     16984     16976     16979     16982     16985
     16977     16976     16979     16980     16977     16976     16979     16981
     16977     16976     16979     16982     16978     16976     16979     16980
     16978     16976     16979     16981     16978     16976     16979     16982
     16979     16982     16985     16986     16979     16982     16985     16987
     16979     16982     16985     16988     16980     16979     16982     16983
     16980     16979     16982     16984     16980     16979     16982     16985
     16981     16979     16982     16983     16981     16979     16982     16984
     16981     16979     16982     16985     16982     16985     16988     16989
     16982     16985     16988     16990     16983     16982     16985     16986
     16983     16982     16985     16987     16983     16982     16985     16988
     16984     16982     16985     16986     16984     16982     16985     16987
     16984     16982     16985     16988     16985     16988     16990     16991
     16985     16988     16990     16992     16986     16985     16988     16989
     16986     16985     16988     16990     16987     16985     16988     16989
     16987     16985     16988     16990     16988     16990     16992     16993
     16988     16990     16992     16994     16988     16990     16992     16995
     16989     16988     16990     16991     16989     16988     16990     16992
     16990     16992     16995     16996     16990     16992     16995     16997
     16990     16992     16995     16998     16991     16990     16992     16993
     16991     16990     16992     16994     16991     16990     16992     16995
     16992     16995     16998     16999     16992     16995     16998     17000
     16992     16995     16998     17001     16993     16992     16995     16996
     16993     16992     16995     16997     16993     16992     16995     16998
     16994     16992     16995     16996     16994     16992     16995     16997
     16994     16992     16995     16998     16995     16998     17001     17002
     16995     16998     17001     17003     16995     16998     17001     17004
     16996     16995     16998     16999     16996     16995     16998     17000
     16996     16995     16998     17001     16997     16995     16998     16999
     16997     16995     16998     17000     16997     16995     16998     17001
     16998     17001     17004     17005     16998     17001     17004     17006
     16998     17001     17004     17007     16999     16998     17001     17002
     16999     16998     17001     17003     16999     16998     17001     17004
     17000     16998     17001     17002     17000     16998     17001     17003
     17000     16998     17001     17004     17001     17004     17007     17008
     17001     17004     17007     17009     17001     17004     17007     17010
     17002     17001     17004     17005     17002     17001     17004     17006
     17002     17001     17004     17007     17003     17001     17004     17005
     17003     17001     17004     17006     17003     17001     17004     17007
     17004     17007     17010     17011     17004     17007     17010     17012
     17004     17007     17010     17013     17005     17004     17007     17008
     17005     17004     17007     17009     17005     17004     17007     17010
     17006     17004     17007     17008     17006     17004     17007     17009
     17006     17004     17007     17010     17007     17010     17013     17014
     17007     17010     17013     17015     17007     17010     17013     17016
     17008     17007     17010     17011     17008     17007     17010     17012
     17008     17007     17010     17013     17009     17007     17010     17011
     17009     17007     17010     17012     17009     17007     17010     17013
     17011     17010     17013     17014     17011     17010     17013     17015
     17011     17010     17013     17016     17012     17010     17013     17014
     17012     17010     17013     17015     17012     17010     17013     17016
     17017     17021     17024     17025     17017     17021     17024     17026
     17017     17021     17024     17031     17018     17017     17021     17022
     17018     17017     17021     17023     17018     17017     17021     17024
     17019     17017     17021     17022     17019     17017     17021     17023
     17019     17017     17021     17024     17020     17017     17021     17022
     17020     17017     17021     17023     17020     17017     17021     17024
     17021     17024     17031     17027     17022     17021     17024     17025
     17022     17021     17024     17026     17022     17021     17024     17031
     17023     17021     17024     17025     17023     17021     17024     17026
     17023     17021     17024     17031     17024     17031     17027     17028
     17024     17031     17027     17029     17024     17031     17027     17030
     17025     17024     17031     17027     17026     17024     17031     17027
     17027     17030     17032     17033     17027     17030     17032     17034
     17027     17030     17032     17035     17028     17027     17030     17032
     17029     17027     17030     17032     17030     17032     17035     17036
     17030     17032     17035     17037     17030     17032     17035     17043
     17031     17027     17030     17032     17032     17035     17037     17038
     17032     17035     17043     17044     17032     17035     17043     17045
     17032     17035     17043     17046     17033     17032     17035     17036
     17033     17032     17035     17037     17033     17032     17035     17043
     17034     17032     17035     17036     17034     17032     17035     17037
     17034     17032     17035     17043     17035     17037     17038     17039
     17035     17037     17038     17040     17035     17043     17046     17047
     17036     17035     17037     17038     17036     17035     17043     17044
     17036     17035     17043     17045     17036     17035     17043     17046
     17037     17035     17043     17044     17037     17035     17043     17045
     17037     17035     17043     17046     17037     17038     17040     17041
     17037     17038     17040     17042     17037     17038     17040     17052
     17038     17037     17035     17043     17038     17040     17052     17053
     17038     17040     17052     17054     17038     17040     17052     17055
     17039     17038     17040     17041     17039     17038     17040     17042
     17039     17038     17040     17052     17040     17052     17055     17056
     17040     17052     17055     17057     17040     17052     17055     17058
     17041     17040     17052     17053     17041     17040     17052     17054
     17041     17040     17052     17055     17042     17040     17052     17053
     17042     17040     17052     17054     17042     17040     17052     17055
     17043     17046     17047     17048     17043     17046     17047     17049
     17044     17043     17046     17047     17045     17043     17046     17047
     17046     17047     17049     17050     17046     17047     17049     17051
     17046     17047     17049     17099     17047     17049     17099     17100
     17047     17049     17099     17101     17047     17049     17099     17102
     17048     17047     17049     17050     17048     17047     17049     17051
     17048     17047     17049     17099     17049     17099     17102     17103
     17049     17099     17102     17104     17049     17099     17102     17105
     17050     17049     17099     17100     17050     17049     17099     17101
     17050     17049     17099     17102     17051     17049     17099     17100
     17051     17049     17099     17101     17051     17049     17099     17102
     17052     17055     17058     17059     17052     17055     17058     17060
     17052     17055     17058     17061     17053     17052     17055     17056
     17053     17052     17055     17057     17053     17052     17055     17058
     17054     17052     17055     17056     17054     17052     17055     17057
     17054     17052     17055     17058     17055     17058     17061     17062
     17055     17058     17061     17063     17055     17058     17061     17064
     17056     17055     17058     17059     17056     17055     17058     17060
     17056     17055     17058     17061     17057     17055     17058     17059
     17057     17055     17058     17060     17057     17055     17058     17061
     17058     17061     17064     17065     17058     17061     17064     17066
     17058     17061     17064     17067     17059     17058     17061     17062
     17059     17058     17061     17063     17059     17058     17061     17064
     17060     17058     17061     17062     17060     17058     17061     17063
     17060     17058     17061     17064     17061     17064     17067     17068
     17061     17064     17067     17069     17061     17064     17067     17070
     17062     17061     17064     17065     17062     17061     17064     17066
     17062     17061     17064     17067     17063     17061     17064     17065
     17063     17061     17064     17066     17063     17061     17064     17067
     17064     17067     17070     17071     17064     17067     17070     17072
     17065     17064     17067     17068     17065     17064     17067     17069
     17065     17064     17067     17070     17066     17064     17067     17068
     17066     17064     17067     17069     17066     17064     17067     17070
     17067     17070     17072     17073     17067     17070     17072     17074
     17068     17067     17070     17071     17068     17067     17070     17072
     17069     17067     17070     17071     17069     17067     17070     17072
     17070     17072     17074     17075     17070     17072     17074     17076
     17070     17072     17074     17077     17071     17070     17072     17073
     17071     17070     17072     17074     17072     17074     17077     17078
     17072     17074     17077     17079     17072     17074     17077     17080
     17073     17072     17074     17075     17073     17072     17074     17076
     17073     17072     17074     17077     17074     17077     17080     17081
     17074     17077     17080     17082     17074     17077     17080     17083
     17075     17074     17077     17078     17075     17074     17077     17079
     17075     17074     17077     17080     17076     17074     17077     17078
     17076     17074     17077     17079     17076     17074     17077     17080
     17077     17080     17083     17084     17077     17080     17083     17085
     17077     17080     17083     17086     17078     17077     17080     17081
     17078     17077     17080     17082     17078     17077     17080     17083
     17079     17077     17080     17081     17079     17077     17080     17082
     17079     17077     17080     17083     17080     17083     17086     17087
     17080     17083     17086     17088     17080     17083     17086     17089
     17081     17080     17083     17084     17081     17080     17083     17085
     17081     17080     17083     17086     17082     17080     17083     17084
     17082     17080     17083     17085     17082     17080     17083     17086
     17083     17086     17089     17090     17083     17086     17089     17091
     17083     17086     17089     17092     17084     17083     17086     17087
     17084     17083     17086     17088     17084     17083     17086     17089
     17085     17083     17086     17087     17085     17083     17086     17088
     17085     17083     17086     17089     17086     17089     17092     17093
     17086     17089     17092     17094     17086     17089     17092     17095
     17087     17086     17089     17090     17087     17086     17089     17091
     17087     17086     17089     17092     17088     17086     17089     17090
     17088     17086     17089     17091     17088     17086     17089     17092
     17089     17092     17095     17096     17089     17092     17095     17097
     17089     17092     17095     17098     17090     17089     17092     17093
     17090     17089     17092     17094     17090     17089     17092     17095
     17091     17089     17092     17093     17091     17089     17092     17094
     17091     17089     17092     17095     17093     17092     17095     17096
     17093     17092     17095     17097     17093     17092     17095     17098
     17094     17092     17095     17096     17094     17092     17095     17097
     17094     17092     17095     17098     17099     17102     17105     17106
     17099     17102     17105     17107     17099     17102     17105     17108
     17100     17099     17102     17103     17100     17099     17102     17104
     17100     17099     17102     17105     17101     17099     17102     17103
     17101     17099     17102     17104     17101     17099     17102     17105
     17102     17105     17108     17109     17102     17105     17108     17110
     17102     17105     17108     17111     17103     17102     17105     17106
     17103     17102     17105     17107     17103     17102     17105     17108
     17104     17102     17105     17106     17104     17102     17105     17107
     17104     17102     17105     17108     17105     17108     17111     17112
     17105     17108     17111     17113     17105     17108     17111     17114
     17106     17105     17108     17109     17106     17105     17108     17110
     17106     17105     17108     17111     17107     17105     17108     17109
     17107     17105     17108     17110     17107     17105     17108     17111
     17108     17111     17114     17115     17108     17111     17114     17116
     17108     17111     17114     17117     17109     17108     17111     17112
     17109     17108     17111     17113     17109     17108     17111     17114
     17110     17108     17111     17112     17110     17108     17111     17113
     17110     17108     17111     17114     17111     17114     17117     17118
     17111     17114     17117     17119     17112     17111     17114     17115
     17112     17111     17114     17116     17112     17111     17114     17117
     17113     17111     17114     17115     17113     17111     17114     17116
     17113     17111     17114     17117     17114     17117     17119     17120
     17114     17117     17119     17121     17115     17114     17117     17118
     17115     17114     17117     17119     17116     17114     17117     17118
     17116     17114     17117     17119     17117     17119     17121     17122
     17117     17119     17121     17123     17117     17119     17121     17124
     17118     17117     17119     17120     17118     17117     17119     17121
     17119     17121     17124     17125     17119     17121     17124     17126
     17119     17121     17124     17127     17120     17119     17121     17122
     17120     17119     17121     17123     17120     17119     17121     17124
     17121     17124     17127     17128     17121     17124     17127     17129
     17121     17124     17127     17130     17122     17121     17124     17125
     17122     17121     17124     17126     17122     17121     17124     17127
     17123     17121     17124     17125     17123     17121     17124     17126
     17123     17121     17124     17127     17124     17127     17130     17131
     17124     17127     17130     17132     17124     17127     17130     17133
     17125     17124     17127     17128     17125     17124     17127     17129
     17125     17124     17127     17130     17126     17124     17127     17128
     17126     17124     17127     17129     17126     17124     17127     17130
     17127     17130     17133     17134     17127     17130     17133     17135
     17127     17130     17133     17136     17128     17127     17130     17131
     17128     17127     17130     17132     17128     17127     17130     17133
     17129     17127     17130     17131     17129     17127     17130     17132
     17129     17127     17130     17133     17130     17133     17136     17137
     17130     17133     17136     17138     17130     17133     17136     17139
     17131     17130     17133     17134     17131     17130     17133     17135
     17131     17130     17133     17136     17132     17130     17133     17134
     17132     17130     17133     17135     17132     17130     17133     17136
     17133     17136     17139     17140     17133     17136     17139     17141
     17133     17136     17139     17142     17134     17133     17136     17137
     17134     17133     17136     17138     17134     17133     17136     17139
     17135     17133     17136     17137     17135     17133     17136     17138
     17135     17133     17136     17139     17136     17139     17142     17143
     17136     17139     17142     17144     17136     17139     17142     17145
     17137     17136     17139     17140     17137     17136     17139     17141
     17137     17136     17139     17142     17138     17136     17139     17140
     17138     17136     17139     17141     17138     17136     17139     17142
     17140     17139     17142     17143     17140     17139     17142     17144
     17140     17139     17142     17145     17141     17139     17142     17143
     17141     17139     17142     17144     17141     17139     17142     17145
     17146     17150     17153     17154     17146     17150     17153     17184
     17146     17192     17189     17184     17146     17192     17189     17190
     17146     17192     17189     17191     17147     17146     17148     17149
     17147     17146     17150     17151     17147     17146     17150     17152
     17147     17146     17150     17153     17147     17146     17192     17189
     17147     17146     17192     17193     17147     17146     17192     17194
     17148     17146     17150     17151     17148     17146     17150     17152
     17148     17146     17150     17153     17148     17146     17192     17189
     17148     17146     17192     17193     17148     17146     17192     17194
     17149     17148     17146     17150     17149     17148     17146     17192
     17150     17146     17192     17189     17150     17146     17192     17193
     17150     17146     17192     17194     17150     17153     17154     17155
     17150     17153     17154     17156     17150     17153     17184     17182
     17150     17153     17184     17185     17150     17153     17184     17189
     17151     17150     17146     17192     17151     17150     17153     17154
     17151     17150     17153     17184     17152     17150     17146     17192
     17152     17150     17153     17154     17152     17150     17153     17184
     17153     17150     17146     17192     17153     17154     17156     17157
     17153     17154     17156     17158     17153     17154     17156     17159
     17153     17184     17182     17159     17153     17184     17182     17179
     17153     17184     17182     17183     17153     17184     17185     17186
     17153     17184     17185     17187     17153     17184     17185     17188
     17153     17184     17189     17190     17153     17184     17189     17191
     17153     17184     17189     17192     17154     17153     17184     17182
     17154     17153     17184     17185     17154     17153     17184     17189
     17154     17156     17159     17160     17154     17156     17159     17161
     17154     17156     17159     17182     17155     17154     17153     17184
     17155     17154     17156     17157     17155     17154     17156     17158
     17155     17154     17156     17159     17156     17154     17153     17184
     17156     17159     17161     17162     17156     17159     17161     17163
     17156     17159     17161     17171     17156     17159     17182     17179
     17156     17159     17182     17183     17156     17159     17182     17184
     17157     17156     17159     17160     17157     17156     17159     17161
     17157     17156     17159     17182     17158     17156     17159     17160
     17158     17156     17159     17161     17158     17156     17159     17182
     17159     17161     17163     17164     17159     17161     17163     17165
     17159     17161     17163     17166     17159     17161     17171     17169
     17159     17161     17171     17172     17159     17161     17171     17176
     17159     17182     17179     17176     17159     17182     17179     17180
     17159     17182     17179     17181     17159     17182     17184     17185
     17159     17182     17184     17189     17160     17159     17161     17162
     17160     17159     17161     17163     17160     17159     17161     17171
     17160     17159     17182     17179     17160     17159     17182     17183
     17160     17159     17182     17184     17161     17159     17182     17179
     17161     17159     17182     17183     17161     17159     17182     17184
     17161     17163     17166     17167     17161     17163     17166     17168
     17161     17163     17166     17169     17161     17171     17169     17166
     17161     17171     17169     17170     17161     17171     17169     17195
     17161     17171     17172     17173     17161     17171     17172     17174
     17161     17171     17172     17175     17161     17171     17176     17177
     17161     17171     17176     17178     17161     17171     17176     17179
     17162     17161     17159     17182     17162     17161     17163     17164
     17162     17161     17163     17165     17162     17161     17163     17166
     17162     17161     17171     17169     17162     17161     17171     17172
     17162     17161     17171     17176     17163     17161     17159     17182
     17163     17161     17171     17169     17163     17161     17171     17172
     17163     17161     17171     17176     17163     17166     17169     17170
     17163     17166     17169     17171     17163     17166     17169     17195
     17164     17163     17161     17171     17164     17163     17166     17167
     17164     17163     17166     17168     17164     17163     17166     17169
     17165     17163     17161     17171     17165     17163     17166     17167
     17165     17163     17166     17168     17165     17163     17166     17169
     17166     17163     17161     17171     17166     17169     17171     17172
     17166     17169     17171     17176     17166     17169     17195     17196
     17166     17169     17195     17197     17166     17169     17195     17201
     17167     17166     17169     17170     17167     17166     17169     17171
     17167     17166     17169     17195     17168     17166     17169     17170
     17168     17166     17169     17171     17168     17166     17169     17195
     17169     17171     17172     17173     17169     17171     17172     17174
     17169     17171     17172     17175     17169     17171     17176     17177
     17169     17171     17176     17178     17169     17171     17176     17179
     17169     17195     17197     17198     17169     17195     17197     17199
     17169     17195     17197     17200     17169     17195     17201     17202
     17169     17195     17201     17203     17169     17195     17201     17204
     17170     17169     17171     17172     17170     17169     17171     17176
     17170     17169     17195     17196     17170     17169     17195     17197
     17170     17169     17195     17201     17171     17161     17159     17182
     17171     17169     17195     17196     17171     17169     17195     17197
     17171     17169     17195     17201     17171     17176     17179     17180
     17171     17176     17179     17181     17171     17176     17179     17182
     17172     17171     17169     17195     17172     17171     17176     17177
     17172     17171     17176     17178     17172     17171     17176     17179
     17173     17172     17171     17176     17174     17172     17171     17176
     17175     17172     17171     17176     17176     17171     17169     17195
     17176     17179     17182     17183     17176     17179     17182     17184
     17177     17176     17179     17180     17177     17176     17179     17181
     17177     17176     17179     17182     17178     17176     17179     17180
     17178     17176     17179     17181     17178     17176     17179     17182
     17179     17182     17184     17185     17179     17182     17184     17189
     17180     17179     17182     17183     17180     17179     17182     17184
     17181     17179     17182     17183     17181     17179     17182     17184
     17182     17184     17185     17186     17182     17184     17185     17187
     17182     17184     17185     17188     17182     17184     17189     17190
     17182     17184     17189     17191     17182     17184     17189     17192
     17183     17182     17184     17185     17183     17182     17184     17189
     17184     17189     17192     17193     17184     17189     17192     17194
     17185     17184     17189     17190     17185     17184     17189     17191
     17185     17184     17189     17192     17186     17185     17184     17189
     17187     17185     17184     17189     17188     17185     17184     17189
     17190     17189     17192     17193     17190     17189     17192     17194
     17191     17189     17192     17193     17191     17189     17192     17194
     17195     17201     17204     17205     17195     17201     17204     17206
     17195     17201     17204     17207     17196     17195     17197     17198
     17196     17195     17197     17199     17196     17195     17197     17200
     17196     17195     17201     17202     17196     17195     17201     17203
     17196     17195     17201     17204     17197     17195     17201     17202
     17197     17195     17201     17203     17197     17195     17201     17204
     17198     17197     17195     17201     17199     17197     17195     17201
     17200     17197     17195     17201     17201     17204     17207     17208
     17201     17204     17207     17209     17201     17204     17207     17210
     17202     17201     17204     17205     17202     17201     17204     17206
     17202     17201     17204     17207     17203     17201     17204     17205
     17203     17201     17204     17206     17203     17201     17204     17207
     17204     17207     17210     17211     17204     17207     17210     17212
     17204     17207     17210     17216     17205     17204     17207     17208
     17205     17204     17207     17209     17205     17204     17207     17210
     17206     17204     17207     17208     17206     17204     17207     17209
     17206     17204     17207     17210     17207     17210     17212     17213
     17207     17210     17212     17214     17207     17210     17212     17215
     17207     17210     17216     17217     17207     17210     17216     17218
     17207     17210     17216     17219     17208     17207     17210     17211
     17208     17207     17210     17212     17208     17207     17210     17216
     17209     17207     17210     17211     17209     17207     17210     17212
     17209     17207     17210     17216     17211     17210     17212     17213
     17211     17210     17212     17214     17211     17210     17212     17215
     17211     17210     17216     17217     17211     17210     17216     17218
     17211     17210     17216     17219     17212     17210     17216     17217
     17212     17210     17216     17218     17212     17210     17216     17219
     17213     17212     17210     17216     17214     17212     17210     17216
     17215     17212     17210     17216     17220     17233     17236     17237
     17220     17233     17236     17238     17220     17233     17236     17243
     17221     17220     17225     17226     17221     17220     17225     17227
     17221     17220     17225     17228     17221     17220     17229     17230
     17221     17220     17229     17231     17221     17220     17229     17232
     17221     17220     17233     17234     17221     17220     17233     17235
     17221     17220     17233     17236     17222     17221     17220     17225
     17222     17221     17220     17229     17222     17221     17220     17233
     17223     17221     17220     17225     17223     17221     17220     17229
     17223     17221     17220     17233     17224     17221     17220     17225
     17224     17221     17220     17229     17224     17221     17220     17233
     17225     17220     17229     17230     17225     17220     17229     17231
     17225     17220     17229     17232     17225     17220     17233     17234
     17225     17220     17233     17235     17225     17220     17233     17236
     17226     17225     17220     17229     17226     17225     17220     17233
     17227     17225     17220     17229     17227     17225     17220     17233
     17228     17225     17220     17229     17228     17225     17220     17233
     17229     17220     17233     17234     17229     17220     17233     17235
     17229     17220     17233     17236     17230     17229     17220     17233
     17231     17229     17220     17233     17232     17229     17220     17233
     17233     17236     17243     17239     17234     17233     17236     17237
     17234     17233     17236     17238     17234     17233     17236     17243
     17235     17233     17236     17237     17235     17233     17236     17238
     17235     17233     17236     17243     17236     17243     17239     17240
     17236     17243     17239     17241     17236     17243     17239     17242
     17237     17236     17243     17239     17238     17236     17243     17239
     17239     17242     17244     17245     17239     17242     17244     17246
     17239     17242     17244     17249     17240     17239     17242     17244
     17241     17239     17242     17244     17242     17244     17249     17247
     17242     17244     17249     17250     17242     17244     17249     17251
     17243     17239     17242     17244     17244     17249     17247     17248
     17244     17249     17247     17299     17244     17249     17251     17252
     17244     17249     17251     17253     17244     17249     17251     17255
     17245     17244     17249     17247     17245     17244     17249     17250
     17245     17244     17249     17251     17246     17244     17249     17247
     17246     17244     17249     17250     17246     17244     17249     17251
     17247     17249     17251     17252     17247     17249     17251     17253
     17247     17249     17251     17255     17247     17299     17301     17302
     17247     17299     17301     17303     17247     17299     17301     17304
     17248     17247     17249     17250     17248     17247     17249     17251
     17248     17247     17299     17300     17248     17247     17299     17301
     17249     17247     17299     17300     17249     17247     17299     17301
     17249     17251     17253     17254     17249     17251     17255     17256
     17249     17251     17255     17257     17250     17249     17247     17299
     17250     17249     17251     17252     17250     17249     17251     17253
     17250     17249     17251     17255     17251     17249     17247     17299
     17251     17255     17257     17258     17251     17255     17257     17259
     17252     17251     17253     17254     17252     17251     17255     17256
     17252     17251     17255     17257     17253     17251     17255     17256
     17253     17251     17255     17257     17254     17253     17251     17255
     17255     17257     17259     17260     17255     17257     17259     17261
     17255     17257     17259     17262     17256     17255     17257     17258
     17256     17255     17257     17259     17257     17259     17262     17263
     17257     17259     17262     17264     17257     17259     17262     17265
     17258     17257     17259     17260     17258     17257     17259     17261
     17258     17257     17259     17262     17259     17262     17265     17266
     17259     17262     17265     17267     17259     17262     17265     17268
     17260     17259     17262     17263     17260     17259     17262     17264
     17260     17259     17262     17265     17261     17259     17262     17263
     17261     17259     17262     17264     17261     17259     17262     17265
     17262     17265     17268     17269     17262     17265     17268     17270
     17262     17265     17268     17271     17263     17262     17265     17266
     17263     17262     17265     17267     17263     17262     17265     17268
     17264     17262     17265     17266     17264     17262     17265     17267
     17264     17262     17265     17268     17265     17268     17271     17272
     17265     17268     17271     17273     17265     17268     17271     17274
     17266     17265     17268     17269     17266     17265     17268     17270
     17266     17265     17268     17271     17267     17265     17268     17269
     17267     17265     17268     17270     17267     17265     17268     17271
     17268     17271     17274     17275     17268     17271     17274     17276
     17268     17271     17274     17277     17269     17268     17271     17272
     17269     17268     17271     17273     17269     17268     17271     17274
     17270     17268     17271     17272     17270     17268     17271     17273
     17270     17268     17271     17274     17271     17274     17277     17278
     17271     17274     17277     17279     17271     17274     17277     17280
     17272     17271     17274     17275     17272     17271     17274     17276
     17272     17271     17274     17277     17273     17271     17274     17275
     17273     17271     17274     17276     17273     17271     17274     17277
     17274     17277     17280     17281     17274     17277     17280     17282
     17274     17277     17280     17283     17275     17274     17277     17278
     17275     17274     17277     17279     17275     17274     17277     17280
     17276     17274     17277     17278     17276     17274     17277     17279
     17276     17274     17277     17280     17277     17280     17283     17284
     17277     17280     17283     17285     17277     17280     17283     17286
     17278     17277     17280     17281     17278     17277     17280     17282
     17278     17277     17280     17283     17279     17277     17280     17281
     17279     17277     17280     17282     17279     17277     17280     17283
     17280     17283     17286     17287     17280     17283     17286     17288
     17280     17283     17286     17289     17281     17280     17283     17284
     17281     17280     17283     17285     17281     17280     17283     17286
     17282     17280     17283     17284     17282     17280     17283     17285
     17282     17280     17283     17286     17283     17286     17289     17290
     17283     17286     17289     17291     17283     17286     17289     17292
     17284     17283     17286     17287     17284     17283     17286     17288
     17284     17283     17286     17289     17285     17283     17286     17287
     17285     17283     17286     17288     17285     17283     17286     17289
     17286     17289     17292     17293     17286     17289     17292     17294
     17286     17289     17292     17295     17287     17286     17289     17290
     17287     17286     17289     17291     17287     17286     17289     17292
     17288     17286     17289     17290     17288     17286     17289     17291
     17288     17286     17289     17292     17289     17292     17295     17296
     17289     17292     17295     17297     17289     17292     17295     17298
     17290     17289     17292     17293     17290     17289     17292     17294
     17290     17289     17292     17295     17291     17289     17292     17293
     17291     17289     17292     17294     17291     17289     17292     17295
     17293     17292     17295     17296     17293     17292     17295     17297
     17293     17292     17295     17298     17294     17292     17295     17296
     17294     17292     17295     17297     17294     17292     17295     17298
     17299     17301     17304     17305     17299     17301     17304     17306
     17299     17301     17304     17307     17300     17299     17301     17302
     17300     17299     17301     17303     17300     17299     17301     17304
     17301     17304     17307     17308     17301     17304     17307     17309
     17301     17304     17307     17310     17302     17301     17304     17305
     17302     17301     17304     17306     17302     17301     17304     17307
     17303     17301     17304     17305     17303     17301     17304     17306
     17303     17301     17304     17307     17304     17307     17310     17311
     17304     17307     17310     17312     17304     17307     17310     17313
     17305     17304     17307     17308     17305     17304     17307     17309
     17305     17304     17307     17310     17306     17304     17307     17308
     17306     17304     17307     17309     17306     17304     17307     17310
     17307     17310     17313     17314     17307     17310     17313     17315
     17307     17310     17313     17316     17308     17307     17310     17311
     17308     17307     17310     17312     17308     17307     17310     17313
     17309     17307     17310     17311     17309     17307     17310     17312
     17309     17307     17310     17313     17310     17313     17316     17317
     17310     17313     17316     17318     17310     17313     17316     17319
     17311     17310     17313     17314     17311     17310     17313     17315
     17311     17310     17313     17316     17312     17310     17313     17314
     17312     17310     17313     17315     17312     17310     17313     17316
     17313     17316     17319     17320     17313     17316     17319     17321
     17313     17316     17319     17322     17314     17313     17316     17317
     17314     17313     17316     17318     17314     17313     17316     17319
     17315     17313     17316     17317     17315     17313     17316     17318
     17315     17313     17316     17319     17316     17319     17322     17323
     17316     17319     17322     17324     17316     17319     17322     17325
     17317     17316     17319     17320     17317     17316     17319     17321
     17317     17316     17319     17322     17318     17316     17319     17320
     17318     17316     17319     17321     17318     17316     17319     17322
     17319     17322     17325     17326     17319     17322     17325     17327
     17319     17322     17325     17328     17320     17319     17322     17323
     17320     17319     17322     17324     17320     17319     17322     17325
     17321     17319     17322     17323     17321     17319     17322     17324
     17321     17319     17322     17325     17322     17325     17328     17329
     17322     17325     17328     17330     17322     17325     17328     17331
     17323     17322     17325     17326     17323     17322     17325     17327
     17323     17322     17325     17328     17324     17322     17325     17326
     17324     17322     17325     17327     17324     17322     17325     17328
     17325     17328     17331     17332     17325     17328     17331     17333
     17325     17328     17331     17334     17326     17325     17328     17329
     17326     17325     17328     17330     17326     17325     17328     17331
     17327     17325     17328     17329     17327     17325     17328     17330
     17327     17325     17328     17331     17328     17331     17334     17335
     17328     17331     17334     17336     17328     17331     17334     17337
     17329     17328     17331     17332     17329     17328     17331     17333
     17329     17328     17331     17334     17330     17328     17331     17332
     17330     17328     17331     17333     17330     17328     17331     17334
     17331     17334     17337     17338     17331     17334     17337     17339
     17331     17334     17337     17340     17332     17331     17334     17335
     17332     17331     17334     17336     17332     17331     17334     17337
     17333     17331     17334     17335     17333     17331     17334     17336
     17333     17331     17334     17337     17334     17337     17340     17341
     17334     17337     17340     17342     17334     17337     17340     17343
     17335     17334     17337     17338     17335     17334     17337     17339
     17335     17334     17337     17340     17336     17334     17337     17338
     17336     17334     17337     17339     17336     17334     17337     17340
     17337     17340     17343     17344     17337     17340     17343     17345
     17337     17340     17343     17346     17338     17337     17340     17341
     17338     17337     17340     17342     17338     17337     17340     17343
     17339     17337     17340     17341     17339     17337     17340     17342
     17339     17337     17340     17343     17340     17343     17346     17347
     17340     17343     17346     17348     17340     17343     17346     17349
     17341     17340     17343     17344     17341     17340     17343     17345
     17341     17340     17343     17346     17342     17340     17343     17344
     17342     17340     17343     17345     17342     17340     17343     17346
     17343     17346     17349     17350     17343     17346     17349     17351
     17343     17346     17349     17352     17344     17343     17346     17347
     17344     17343     17346     17348     17344     17343     17346     17349
     17345     17343     17346     17347     17345     17343     17346     17348
     17345     17343     17346     17349     17346     17349     17352     17353
     17346     17349     17352     17354     17346     17349     17352     17355
     17347     17346     17349     17350     17347     17346     17349     17351
     17347     17346     17349     17352     17348     17346     17349     17350
     17348     17346     17349     17351     17348     17346     17349     17352
     17349     17352     17355     17356     17349     17352     17355     17357
     17349     17352     17355     17358     17350     17349     17352     17353
     17350     17349     17352     17354     17350     17349     17352     17355
     17351     17349     17352     17353     17351     17349     17352     17354
     17351     17349     17352     17355     17352     17355     17358     17359
     17352     17355     17358     17360     17352     17355     17358     17361
     17353     17352     17355     17356     17353     17352     17355     17357
     17353     17352     17355     17358     17354     17352     17355     17356
     17354     17352     17355     17357     17354     17352     17355     17358
     17355     17358     17361     17362     17355     17358     17361     17363
     17355     17358     17361     17364     17356     17355     17358     17359
     17356     17355     17358     17360     17356     17355     17358     17361
     17357     17355     17358     17359     17357     17355     17358     17360
     17357     17355     17358     17361     17358     17361     17364     17365
     17358     17361     17364     17366     17358     17361     17364     17367
     17359     17358     17361     17362     17359     17358     17361     17363
     17359     17358     17361     17364     17360     17358     17361     17362
     17360     17358     17361     17363     17360     17358     17361     17364
     17362     17361     17364     17365     17362     17361     17364     17366
     17362     17361     17364     17367     17363     17361     17364     17365
     17363     17361     17364     17366     17363     17361     17364     17367
     17368     17369     17384     17385     17368     17369     17384     17386
     17368     17369     17384     17390     17369     17368     17372     17373
     17369     17368     17372     17374     17369     17368     17372     17375
     17369     17368     17376     17377     17369     17368     17376     17378
     17369     17368     17376     17379     17369     17368     17380     17381
     17369     17368     17380     17382     17369     17368     17380     17383
     17369     17384     17390     17387     17370     17369     17368     17372
     17370     17369     17368     17376     17370     17369     17368     17380
     17370     17369     17384     17385     17370     17369     17384     17386
     17370     17369     17384     17390     17371     17369     17368     17372
     17371     17369     17368     17376     17371     17369     17368     17380
     17371     17369     17384     17385     17371     17369     17384     17386
     17371     17369     17384     17390     17372     17368     17369     17384
     17372     17368     17376     17377     17372     17368     17376     17378
     17372     17368     17376     17379     17372     17368     17380     17381
     17372     17368     17380     17382     17372     17368     17380     17383
     17373     17372     17368     17376     17373     17372     17368     17380
     17374     17372     17368     17376     17374     17372     17368     17380
     17375     17372     17368     17376     17375     17372     17368     17380
     17376     17368     17369     17384     17376     17368     17380     17381
     17376     17368     17380     17382     17376     17368     17380     17383
     17377     17376     17368     17380     17378     17376     17368     17380
     17379     17376     17368     17380     17380     17368     17369     17384
     17384     17390     17387     17388     17384     17390     17387     17389
     17384     17390     17387     17391     17385     17384     17390     17387
     17386     17384     17390     17387     17387     17391     17392     17393
     17387     17391     17392     17394     17387     17391     17392     17395
     17388     17387     17391     17392     17389     17387     17391     17392
     17390     17387     17391     17392     17391     17392     17395     17396
     17391     17392     17395     17397     17391     17392     17395     17403
     17392     17395     17397     17398     17392     17395     17403     17404
     17392     17395     17403     17405     17392     17395     17403     17406
     17393     17392     17395     17396     17393     17392     17395     17397
     17393     17392     17395     17403     17394     17392     17395     17396
     17394     17392     17395     17397     17394     17392     17395     17403
     17395     17397     17398     17399     17395     17397     17398     17400
     17395     17403     17406     17407     17396     17395     17397     17398
     17396     17395     17403     17404     17396     17395     17403     17405
     17396     17395     17403     17406     17397     17395     17403     17404
     17397     17395     17403     17405     17397     17395     17403     17406
     17397     17398     17400     17401     17397     17398     17400     17402
     17397     17398     17400     17412     17398     17397     17395     17403
     17398     17400     17412     17413     17398     17400     17412     17414
     17398     17400     17412     17415     17399     17398     17400     17401
     17399     17398     17400     17402     17399     17398     17400     17412
     17400     17412     17415     17416     17400     17412     17415     17417
     17400     17412     17415     17418     17401     17400     17412     17413
     17401     17400     17412     17414     17401     17400     17412     17415
     17402     17400     17412     17413     17402     17400     17412     17414
     17402     17400     17412     17415     17403     17406     17407     17408
     17403     17406     17407     17409     17404     17403     17406     17407
     17405     17403     17406     17407     17406     17407     17409     17410
     17406     17407     17409     17411     17406     17407     17409     17459
     17407     17409     17459     17460     17407     17409     17459     17461
     17407     17409     17459     17462     17408     17407     17409     17410
     17408     17407     17409     17411     17408     17407     17409     17459
     17409     17459     17462     17463     17409     17459     17462     17464
     17409     17459     17462     17465     17410     17409     17459     17460
     17410     17409     17459     17461     17410     17409     17459     17462
     17411     17409     17459     17460     17411     17409     17459     17461
     17411     17409     17459     17462     17412     17415     17418     17419
     17412     17415     17418     17420     17412     17415     17418     17421
     17413     17412     17415     17416     17413     17412     17415     17417
     17413     17412     17415     17418     17414     17412     17415     17416
     17414     17412     17415     17417     17414     17412     17415     17418
     17415     17418     17421     17422     17415     17418     17421     17423
     17415     17418     17421     17424     17416     17415     17418     17419
     17416     17415     17418     17420     17416     17415     17418     17421
     17417     17415     17418     17419     17417     17415     17418     17420
     17417     17415     17418     17421     17418     17421     17424     17425
     17418     17421     17424     17426     17418     17421     17424     17427
     17419     17418     17421     17422     17419     17418     17421     17423
     17419     17418     17421     17424     17420     17418     17421     17422
     17420     17418     17421     17423     17420     17418     17421     17424
     17421     17424     17427     17428     17421     17424     17427     17429
     17421     17424     17427     17430     17422     17421     17424     17425
     17422     17421     17424     17426     17422     17421     17424     17427
     17423     17421     17424     17425     17423     17421     17424     17426
     17423     17421     17424     17427     17424     17427     17430     17431
     17424     17427     17430     17432     17425     17424     17427     17428
     17425     17424     17427     17429     17425     17424     17427     17430
     17426     17424     17427     17428     17426     17424     17427     17429
     17426     17424     17427     17430     17427     17430     17432     17433
     17427     17430     17432     17434     17428     17427     17430     17431
     17428     17427     17430     17432     17429     17427     17430     17431
     17429     17427     17430     17432     17430     17432     17434     17435
     17430     17432     17434     17436     17430     17432     17434     17437
     17431     17430     17432     17433     17431     17430     17432     17434
     17432     17434     17437     17438     17432     17434     17437     17439
     17432     17434     17437     17440     17433     17432     17434     17435
     17433     17432     17434     17436     17433     17432     17434     17437
     17434     17437     17440     17441     17434     17437     17440     17442
     17434     17437     17440     17443     17435     17434     17437     17438
     17435     17434     17437     17439     17435     17434     17437     17440
     17436     17434     17437     17438     17436     17434     17437     17439
     17436     17434     17437     17440     17437     17440     17443     17444
     17437     17440     17443     17445     17437     17440     17443     17446
     17438     17437     17440     17441     17438     17437     17440     17442
     17438     17437     17440     17443     17439     17437     17440     17441
     17439     17437     17440     17442     17439     17437     17440     17443
     17440     17443     17446     17447     17440     17443     17446     17448
     17440     17443     17446     17449     17441     17440     17443     17444
     17441     17440     17443     17445     17441     17440     17443     17446
     17442     17440     17443     17444     17442     17440     17443     17445
     17442     17440     17443     17446     17443     17446     17449     17450
     17443     17446     17449     17451     17443     17446     17449     17452
     17444     17443     17446     17447     17444     17443     17446     17448
     17444     17443     17446     17449     17445     17443     17446     17447
     17445     17443     17446     17448     17445     17443     17446     17449
     17446     17449     17452     17453     17446     17449     17452     17454
     17446     17449     17452     17455     17447     17446     17449     17450
     17447     17446     17449     17451     17447     17446     17449     17452
     17448     17446     17449     17450     17448     17446     17449     17451
     17448     17446     17449     17452     17449     17452     17455     17456
     17449     17452     17455     17457     17449     17452     17455     17458
     17450     17449     17452     17453     17450     17449     17452     17454
     17450     17449     17452     17455     17451     17449     17452     17453
     17451     17449     17452     17454     17451     17449     17452     17455
     17453     17452     17455     17456     17453     17452     17455     17457
     17453     17452     17455     17458     17454     17452     17455     17456
     17454     17452     17455     17457     17454     17452     17455     17458
     17459     17462     17465     17466     17459     17462     17465     17467
     17459     17462     17465     17468     17460     17459     17462     17463
     17460     17459     17462     17464     17460     17459     17462     17465
     17461     17459     17462     17463     17461     17459     17462     17464
     17461     17459     17462     17465     17462     17465     17468     17469
     17462     17465     17468     17470     17462     17465     17468     17471
     17463     17462     17465     17466     17463     17462     17465     17467
     17463     17462     17465     17468     17464     17462     17465     17466
     17464     17462     17465     17467     17464     17462     17465     17468
     17465     17468     17471     17472     17465     17468     17471     17473
     17465     17468     17471     17474     17466     17465     17468     17469
     17466     17465     17468     17470     17466     17465     17468     17471
     17467     17465     17468     17469     17467     17465     17468     17470
     17467     17465     17468     17471     17468     17471     17474     17475
     17468     17471     17474     17476     17468     17471     17474     17477
     17469     17468     17471     17472     17469     17468     17471     17473
     17469     17468     17471     17474     17470     17468     17471     17472
     17470     17468     17471     17473     17470     17468     17471     17474
     17471     17474     17477     17478     17471     17474     17477     17479
     17472     17471     17474     17475     17472     17471     17474     17476
     17472     17471     17474     17477     17473     17471     17474     17475
     17473     17471     17474     17476     17473     17471     17474     17477
     17474     17477     17479     17480     17474     17477     17479     17481
     17475     17474     17477     17478     17475     17474     17477     17479
     17476     17474     17477     17478     17476     17474     17477     17479
     17477     17479     17481     17482     17477     17479     17481     17483
     17477     17479     17481     17484     17478     17477     17479     17480
     17478     17477     17479     17481     17479     17481     17484     17485
     17479     17481     17484     17486     17479     17481     17484     17487
     17480     17479     17481     17482     17480     17479     17481     17483
     17480     17479     17481     17484     17481     17484     17487     17488
     17481     17484     17487     17489     17481     17484     17487     17490
     17482     17481     17484     17485     17482     17481     17484     17486
     17482     17481     17484     17487     17483     17481     17484     17485
     17483     17481     17484     17486     17483     17481     17484     17487
     17484     17487     17490     17491     17484     17487     17490     17492
     17484     17487     17490     17493     17485     17484     17487     17488
     17485     17484     17487     17489     17485     17484     17487     17490
     17486     17484     17487     17488     17486     17484     17487     17489
     17486     17484     17487     17490     17487     17490     17493     17494
     17487     17490     17493     17495     17487     17490     17493     17496
     17488     17487     17490     17491     17488     17487     17490     17492
     17488     17487     17490     17493     17489     17487     17490     17491
     17489     17487     17490     17492     17489     17487     17490     17493
     17490     17493     17496     17497     17490     17493     17496     17498
     17490     17493     17496     17499     17491     17490     17493     17494
     17491     17490     17493     17495     17491     17490     17493     17496
     17492     17490     17493     17494     17492     17490     17493     17495
     17492     17490     17493     17496     17493     17496     17499     17500
     17493     17496     17499     17501     17493     17496     17499     17502
     17494     17493     17496     17497     17494     17493     17496     17498
     17494     17493     17496     17499     17495     17493     17496     17497
     17495     17493     17496     17498     17495     17493     17496     17499
     17496     17499     17502     17503     17496     17499     17502     17504
     17496     17499     17502     17505     17497     17496     17499     17500
     17497     17496     17499     17501     17497     17496     17499     17502
     17498     17496     17499     17500     17498     17496     17499     17501
     17498     17496     17499     17502     17500     17499     17502     17503
     17500     17499     17502     17504     17500     17499     17502     17505
     17501     17499     17502     17503     17501     17499     17502     17504
     17501     17499     17502     17505     17506     17519     17522     17523
     17506     17519     17522     17524     17506     17519     17522     17529
     17507     17506     17511     17512     17507     17506     17511     17513
     17507     17506     17511     17514     17507     17506     17515     17516
     17507     17506     17515     17517     17507     17506     17515     17518
     17507     17506     17519     17520     17507     17506     17519     17521
     17507     17506     17519     17522     17508     17507     17506     17511
     17508     17507     17506     17515     17508     17507     17506     17519
     17509     17507     17506     17511     17509     17507     17506     17515
     17509     17507     17506     17519     17510     17507     17506     17511
     17510     17507     17506     17515     17510     17507     17506     17519
     17511     17506     17515     17516     17511     17506     17515     17517
     17511     17506     17515     17518     17511     17506     17519     17520
     17511     17506     17519     17521     17511     17506     17519     17522
     17512     17511     17506     17515     17512     17511     17506     17519
     17513     17511     17506     17515     17513     17511     17506     17519
     17514     17511     17506     17515     17514     17511     17506     17519
     17515     17506     17519     17520     17515     17506     17519     17521
     17515     17506     17519     17522     17516     17515     17506     17519
     17517     17515     17506     17519     17518     17515     17506     17519
     17519     17522     17529     17525     17520     17519     17522     17523
     17520     17519     17522     17524     17520     17519     17522     17529
     17521     17519     17522     17523     17521     17519     17522     17524
     17521     17519     17522     17529     17522     17529     17525     17526
     17522     17529     17525     17527     17522     17529     17525     17528
     17523     17522     17529     17525     17524     17522     17529     17525
     17525     17528     17530     17531     17525     17528     17530     17532
     17525     17528     17530     17535     17526     17525     17528     17530
     17527     17525     17528     17530     17528     17530     17535     17533
     17528     17530     17535     17536     17528     17530     17535     17537
     17529     17525     17528     17530     17530     17535     17533     17534
     17530     17535     17533     17585     17530     17535     17537     17538
     17530     17535     17537     17539     17530     17535     17537     17541
     17531     17530     17535     17533     17531     17530     17535     17536
     17531     17530     17535     17537     17532     17530     17535     17533
     17532     17530     17535     17536     17532     17530     17535     17537
     17533     17535     17537     17538     17533     17535     17537     17539
     17533     17535     17537     17541     17533     17585     17587     17588
     17533     17585     17587     17589     17533     17585     17587     17590
     17534     17533     17535     17536     17534     17533     17535     17537
     17534     17533     17585     17586     17534     17533     17585     17587
     17535     17533     17585     17586     17535     17533     17585     17587
     17535     17537     17539     17540     17535     17537     17541     17542
     17535     17537     17541     17543     17536     17535     17533     17585
     17536     17535     17537     17538     17536     17535     17537     17539
     17536     17535     17537     17541     17537     17535     17533     17585
     17537     17541     17543     17544     17537     17541     17543     17545
     17538     17537     17539     17540     17538     17537     17541     17542
     17538     17537     17541     17543     17539     17537     17541     17542
     17539     17537     17541     17543     17540     17539     17537     17541
     17541     17543     17545     17546     17541     17543     17545     17547
     17541     17543     17545     17548     17542     17541     17543     17544
     17542     17541     17543     17545     17543     17545     17548     17549
     17543     17545     17548     17550     17543     17545     17548     17551
     17544     17543     17545     17546     17544     17543     17545     17547
     17544     17543     17545     17548     17545     17548     17551     17552
     17545     17548     17551     17553     17545     17548     17551     17554
     17546     17545     17548     17549     17546     17545     17548     17550
     17546     17545     17548     17551     17547     17545     17548     17549
     17547     17545     17548     17550     17547     17545     17548     17551
     17548     17551     17554     17555     17548     17551     17554     17556
     17548     17551     17554     17557     17549     17548     17551     17552
     17549     17548     17551     17553     17549     17548     17551     17554
     17550     17548     17551     17552     17550     17548     17551     17553
     17550     17548     17551     17554     17551     17554     17557     17558
     17551     17554     17557     17559     17551     17554     17557     17560
     17552     17551     17554     17555     17552     17551     17554     17556
     17552     17551     17554     17557     17553     17551     17554     17555
     17553     17551     17554     17556     17553     17551     17554     17557
     17554     17557     17560     17561     17554     17557     17560     17562
     17554     17557     17560     17563     17555     17554     17557     17558
     17555     17554     17557     17559     17555     17554     17557     17560
     17556     17554     17557     17558     17556     17554     17557     17559
     17556     17554     17557     17560     17557     17560     17563     17564
     17557     17560     17563     17565     17557     17560     17563     17566
     17558     17557     17560     17561     17558     17557     17560     17562
     17558     17557     17560     17563     17559     17557     17560     17561
     17559     17557     17560     17562     17559     17557     17560     17563
     17560     17563     17566     17567     17560     17563     17566     17568
     17560     17563     17566     17569     17561     17560     17563     17564
     17561     17560     17563     17565     17561     17560     17563     17566
     17562     17560     17563     17564     17562     17560     17563     17565
     17562     17560     17563     17566     17563     17566     17569     17570
     17563     17566     17569     17571     17563     17566     17569     17572
     17564     17563     17566     17567     17564     17563     17566     17568
     17564     17563     17566     17569     17565     17563     17566     17567
     17565     17563     17566     17568     17565     17563     17566     17569
     17566     17569     17572     17573     17566     17569     17572     17574
     17566     17569     17572     17575     17567     17566     17569     17570
     17567     17566     17569     17571     17567     17566     17569     17572
     17568     17566     17569     17570     17568     17566     17569     17571
     17568     17566     17569     17572     17569     17572     17575     17576
     17569     17572     17575     17577     17569     17572     17575     17578
     17570     17569     17572     17573     17570     17569     17572     17574
     17570     17569     17572     17575     17571     17569     17572     17573
     17571     17569     17572     17574     17571     17569     17572     17575
     17572     17575     17578     17579     17572     17575     17578     17580
     17572     17575     17578     17581     17573     17572     17575     17576
     17573     17572     17575     17577     17573     17572     17575     17578
     17574     17572     17575     17576     17574     17572     17575     17577
     17574     17572     17575     17578     17575     17578     17581     17582
     17575     17578     17581     17583     17575     17578     17581     17584
     17576     17575     17578     17579     17576     17575     17578     17580
     17576     17575     17578     17581     17577     17575     17578     17579
     17577     17575     17578     17580     17577     17575     17578     17581
     17579     17578     17581     17582     17579     17578     17581     17583
     17579     17578     17581     17584     17580     17578     17581     17582
     17580     17578     17581     17583     17580     17578     17581     17584
     17585     17587     17590     17591     17585     17587     17590     17592
     17585     17587     17590     17593     17586     17585     17587     17588
     17586     17585     17587     17589     17586     17585     17587     17590
     17587     17590     17593     17594     17587     17590     17593     17595
     17587     17590     17593     17596     17588     17587     17590     17591
     17588     17587     17590     17592     17588     17587     17590     17593
     17589     17587     17590     17591     17589     17587     17590     17592
     17589     17587     17590     17593     17590     17593     17596     17597
     17590     17593     17596     17598     17590     17593     17596     17599
     17591     17590     17593     17594     17591     17590     17593     17595
     17591     17590     17593     17596     17592     17590     17593     17594
     17592     17590     17593     17595     17592     17590     17593     17596
     17593     17596     17599     17600     17593     17596     17599     17601
     17593     17596     17599     17602     17594     17593     17596     17597
     17594     17593     17596     17598     17594     17593     17596     17599
     17595     17593     17596     17597     17595     17593     17596     17598
     17595     17593     17596     17599     17596     17599     17602     17603
     17596     17599     17602     17604     17596     17599     17602     17605
     17597     17596     17599     17600     17597     17596     17599     17601
     17597     17596     17599     17602     17598     17596     17599     17600
     17598     17596     17599     17601     17598     17596     17599     17602
     17599     17602     17605     17606     17599     17602     17605     17607
     17599     17602     17605     17608     17600     17599     17602     17603
     17600     17599     17602     17604     17600     17599     17602     17605
     17601     17599     17602     17603     17601     17599     17602     17604
     17601     17599     17602     17605     17602     17605     17608     17609
     17602     17605     17608     17610     17602     17605     17608     17611
     17603     17602     17605     17606     17603     17602     17605     17607
     17603     17602     17605     17608     17604     17602     17605     17606
     17604     17602     17605     17607     17604     17602     17605     17608
     17605     17608     17611     17612     17605     17608     17611     17613
     17605     17608     17611     17614     17606     17605     17608     17609
     17606     17605     17608     17610     17606     17605     17608     17611
     17607     17605     17608     17609     17607     17605     17608     17610
     17607     17605     17608     17611     17608     17611     17614     17615
     17608     17611     17614     17616     17608     17611     17614     17617
     17609     17608     17611     17612     17609     17608     17611     17613
     17609     17608     17611     17614     17610     17608     17611     17612
     17610     17608     17611     17613     17610     17608     17611     17614
     17611     17614     17617     17618     17611     17614     17617     17619
     17611     17614     17617     17620     17612     17611     17614     17615
     17612     17611     17614     17616     17612     17611     17614     17617
     17613     17611     17614     17615     17613     17611     17614     17616
     17613     17611     17614     17617     17614     17617     17620     17621
     17614     17617     17620     17622     17614     17617     17620     17623
     17615     17614     17617     17618     17615     17614     17617     17619
     17615     17614     17617     17620     17616     17614     17617     17618
     17616     17614     17617     17619     17616     17614     17617     17620
     17617     17620     17623     17624     17617     17620     17623     17625
     17617     17620     17623     17626     17618     17617     17620     17621
     17618     17617     17620     17622     17618     17617     17620     17623
     17619     17617     17620     17621     17619     17617     17620     17622
     17619     17617     17620     17623     17620     17623     17626     17627
     17620     17623     17626     17628     17620     17623     17626     17629
     17621     17620     17623     17624     17621     17620     17623     17625
     17621     17620     17623     17626     17622     17620     17623     17624
     17622     17620     17623     17625     17622     17620     17623     17626
     17623     17626     17629     17630     17623     17626     17629     17631
     17623     17626     17629     17632     17624     17623     17626     17627
     17624     17623     17626     17628     17624     17623     17626     17629
     17625     17623     17626     17627     17625     17623     17626     17628
     17625     17623     17626     17629     17626     17629     17632     17633
     17626     17629     17632     17634     17626     17629     17632     17635
     17627     17626     17629     17630     17627     17626     17629     17631
     17627     17626     17629     17632     17628     17626     17629     17630
     17628     17626     17629     17631     17628     17626     17629     17632
     17629     17632     17635     17636     17629     17632     17635     17637
     17629     17632     17635     17638     17630     17629     17632     17633
     17630     17629     17632     17634     17630     17629     17632     17635
     17631     17629     17632     17633     17631     17629     17632     17634
     17631     17629     17632     17635     17632     17635     17638     17639
     17632     17635     17638     17640     17632     17635     17638     17641
     17633     17632     17635     17636     17633     17632     17635     17637
     17633     17632     17635     17638     17634     17632     17635     17636
     17634     17632     17635     17637     17634     17632     17635     17638
     17635     17638     17641     17642     17635     17638     17641     17643
     17635     17638     17641     17644     17636     17635     17638     17639
     17636     17635     17638     17640     17636     17635     17638     17641
     17637     17635     17638     17639     17637     17635     17638     17640
     17637     17635     17638     17641     17638     17641     17644     17645
     17638     17641     17644     17646     17638     17641     17644     17647
     17639     17638     17641     17642     17639     17638     17641     17643
     17639     17638     17641     17644     17640     17638     17641     17642
     17640     17638     17641     17643     17640     17638     17641     17644
     17641     17644     17647     17648     17641     17644     17647     17649
     17641     17644     17647     17650     17642     17641     17644     17645
     17642     17641     17644     17646     17642     17641     17644     17647
     17643     17641     17644     17645     17643     17641     17644     17646
     17643     17641     17644     17647     17644     17647     17650     17651
     17644     17647     17650     17652     17644     17647     17650     17653
     17645     17644     17647     17648     17645     17644     17647     17649
     17645     17644     17647     17650     17646     17644     17647     17648
     17646     17644     17647     17649     17646     17644     17647     17650
     17648     17647     17650     17651     17648     17647     17650     17652
     17648     17647     17650     17653     17649     17647     17650     17651
     17649     17647     17650     17652     17649     17647     17650     17653
     17654     17658     17661     17662     17654     17658     17661     17692
     17654     17700     17697     17692     17654     17700     17697     17698
     17654     17700     17697     17699     17655     17654     17656     17657
     17655     17654     17658     17659     17655     17654     17658     17660
     17655     17654     17658     17661     17655     17654     17700     17697
     17655     17654     17700     17701     17655     17654     17700     17702
     17656     17654     17658     17659     17656     17654     17658     17660
     17656     17654     17658     17661     17656     17654     17700     17697
     17656     17654     17700     17701     17656     17654     17700     17702
     17657     17656     17654     17658     17657     17656     17654     17700
     17658     17654     17700     17697     17658     17654     17700     17701
     17658     17654     17700     17702     17658     17661     17662     17663
     17658     17661     17662     17664     17658     17661     17692     17690
     17658     17661     17692     17693     17658     17661     17692     17697
     17659     17658     17654     17700     17659     17658     17661     17662
     17659     17658     17661     17692     17660     17658     17654     17700
     17660     17658     17661     17662     17660     17658     17661     17692
     17661     17658     17654     17700     17661     17662     17664     17665
     17661     17662     17664     17666     17661     17662     17664     17667
     17661     17692     17690     17667     17661     17692     17690     17687
     17661     17692     17690     17691     17661     17692     17693     17694
     17661     17692     17693     17695     17661     17692     17693     17696
     17661     17692     17697     17698     17661     17692     17697     17699
     17661     17692     17697     17700     17662     17661     17692     17690
     17662     17661     17692     17693     17662     17661     17692     17697
     17662     17664     17667     17668     17662     17664     17667     17669
     17662     17664     17667     17690     17663     17662     17661     17692
     17663     17662     17664     17665     17663     17662     17664     17666
     17663     17662     17664     17667     17664     17662     17661     17692
     17664     17667     17669     17670     17664     17667     17669     17671
     17664     17667     17669     17679     17664     17667     17690     17687
     17664     17667     17690     17691     17664     17667     17690     17692
     17665     17664     17667     17668     17665     17664     17667     17669
     17665     17664     17667     17690     17666     17664     17667     17668
     17666     17664     17667     17669     17666     17664     17667     17690
     17667     17669     17671     17672     17667     17669     17671     17673
     17667     17669     17671     17674     17667     17669     17679     17677
     17667     17669     17679     17680     17667     17669     17679     17684
     17667     17690     17687     17684     17667     17690     17687     17688
     17667     17690     17687     17689     17667     17690     17692     17693
     17667     17690     17692     17697     17668     17667     17669     17670
     17668     17667     17669     17671     17668     17667     17669     17679
     17668     17667     17690     17687     17668     17667     17690     17691
     17668     17667     17690     17692     17669     17667     17690     17687
     17669     17667     17690     17691     17669     17667     17690     17692
     17669     17671     17674     17675     17669     17671     17674     17676
     17669     17671     17674     17677     17669     17679     17677     17674
     17669     17679     17677     17678     17669     17679     17677     17703
     17669     17679     17680     17681     17669     17679     17680     17682
     17669     17679     17680     17683     17669     17679     17684     17685
     17669     17679     17684     17686     17669     17679     17684     17687
     17670     17669     17667     17690     17670     17669     17671     17672
     17670     17669     17671     17673     17670     17669     17671     17674
     17670     17669     17679     17677     17670     17669     17679     17680
     17670     17669     17679     17684     17671     17669     17667     17690
     17671     17669     17679     17677     17671     17669     17679     17680
     17671     17669     17679     17684     17671     17674     17677     17678
     17671     17674     17677     17679     17671     17674     17677     17703
     17672     17671     17669     17679     17672     17671     17674     17675
     17672     17671     17674     17676     17672     17671     17674     17677
     17673     17671     17669     17679     17673     17671     17674     17675
     17673     17671     17674     17676     17673     17671     17674     17677
     17674     17671     17669     17679     17674     17677     17679     17680
     17674     17677     17679     17684     17674     17677     17703     17704
     17674     17677     17703     17705     17674     17677     17703     17709
     17675     17674     17677     17678     17675     17674     17677     17679
     17675     17674     17677     17703     17676     17674     17677     17678
     17676     17674     17677     17679     17676     17674     17677     17703
     17677     17679     17680     17681     17677     17679     17680     17682
     17677     17679     17680     17683     17677     17679     17684     17685
     17677     17679     17684     17686     17677     17679     17684     17687
     17677     17703     17705     17706     17677     17703     17705     17707
     17677     17703     17705     17708     17677     17703     17709     17710
     17677     17703     17709     17711     17677     17703     17709     17712
     17678     17677     17679     17680     17678     17677     17679     17684
     17678     17677     17703     17704     17678     17677     17703     17705
     17678     17677     17703     17709     17679     17669     17667     17690
     17679     17677     17703     17704     17679     17677     17703     17705
     17679     17677     17703     17709     17679     17684     17687     17688
     17679     17684     17687     17689     17679     17684     17687     17690
     17680     17679     17677     17703     17680     17679     17684     17685
     17680     17679     17684     17686     17680     17679     17684     17687
     17681     17680     17679     17684     17682     17680     17679     17684
     17683     17680     17679     17684     17684     17679     17677     17703
     17684     17687     17690     17691     17684     17687     17690     17692
     17685     17684     17687     17688     17685     17684     17687     17689
     17685     17684     17687     17690     17686     17684     17687     17688
     17686     17684     17687     17689     17686     17684     17687     17690
     17687     17690     17692     17693     17687     17690     17692     17697
     17688     17687     17690     17691     17688     17687     17690     17692
     17689     17687     17690     17691     17689     17687     17690     17692
     17690     17692     17693     17694     17690     17692     17693     17695
     17690     17692     17693     17696     17690     17692     17697     17698
     17690     17692     17697     17699     17690     17692     17697     17700
     17691     17690     17692     17693     17691     17690     17692     17697
     17692     17697     17700     17701     17692     17697     17700     17702
     17693     17692     17697     17698     17693     17692     17697     17699
     17693     17692     17697     17700     17694     17693     17692     17697
     17695     17693     17692     17697     17696     17693     17692     17697
     17698     17697     17700     17701     17698     17697     17700     17702
     17699     17697     17700     17701     17699     17697     17700     17702
     17703     17709     17712     17713     17703     17709     17712     17714
     17703     17709     17712     17715     17704     17703     17705     17706
     17704     17703     17705     17707     17704     17703     17705     17708
     17704     17703     17709     17710     17704     17703     17709     17711
     17704     17703     17709     17712     17705     17703     17709     17710
     17705     17703     17709     17711     17705     17703     17709     17712
     17706     17705     17703     17709     17707     17705     17703     17709
     17708     17705     17703     17709     17709     17712     17715     17716
     17709     17712     17715     17717     17709     17712     17715     17718
     17710     17709     17712     17713     17710     17709     17712     17714
     17710     17709     17712     17715     17711     17709     17712     17713
     17711     17709     17712     17714     17711     17709     17712     17715
     17712     17715     17718     17719     17712     17715     17718     17720
     17712     17715     17718     17724     17713     17712     17715     17716
     17713     17712     17715     17717     17713     17712     17715     17718
     17714     17712     17715     17716     17714     17712     17715     17717
     17714     17712     17715     17718     17715     17718     17720     17721
     17715     17718     17720     17722     17715     17718     17720     17723
     17715     17718     17724     17725     17715     17718     17724     17726
     17715     17718     17724     17727     17716     17715     17718     17719
     17716     17715     17718     17720     17716     17715     17718     17724
     17717     17715     17718     17719     17717     17715     17718     17720
     17717     17715     17718     17724     17719     17718     17720     17721
     17719     17718     17720     17722     17719     17718     17720     17723
     17719     17718     17724     17725     17719     17718     17724     17726
     17719     17718     17724     17727     17720     17718     17724     17725
     17720     17718     17724     17726     17720     17718     17724     17727
     17721     17720     17718     17724     17722     17720     17718     17724
     17723     17720     17718     17724     17728     17732     17735     17736
     17728     17732     17735     17766     17728     17774     17771     17766
     17728     17774     17771     17772     17728     17774     17771     17773
     17729     17728     17730     17731     17729     17728     17732     17733
     17729     17728     17732     17734     17729     17728     17732     17735
     17729     17728     17774     17771     17729     17728     17774     17775
     17729     17728     17774     17776     17730     17728     17732     17733
     17730     17728     17732     17734     17730     17728     17732     17735
     17730     17728     17774     17771     17730     17728     17774     17775
     17730     17728     17774     17776     17731     17730     17728     17732
     17731     17730     17728     17774     17732     17728     17774     17771
     17732     17728     17774     17775     17732     17728     17774     17776
     17732     17735     17736     17737     17732     17735     17736     17738
     17732     17735     17766     17764     17732     17735     17766     17767
     17732     17735     17766     17771     17733     17732     17728     17774
     17733     17732     17735     17736     17733     17732     17735     17766
     17734     17732     17728     17774     17734     17732     17735     17736
     17734     17732     17735     17766     17735     17732     17728     17774
     17735     17736     17738     17739     17735     17736     17738     17740
     17735     17736     17738     17741     17735     17766     17764     17741
     17735     17766     17764     17761     17735     17766     17764     17765
     17735     17766     17767     17768     17735     17766     17767     17769
     17735     17766     17767     17770     17735     17766     17771     17772
     17735     17766     17771     17773     17735     17766     17771     17774
     17736     17735     17766     17764     17736     17735     17766     17767
     17736     17735     17766     17771     17736     17738     17741     17742
     17736     17738     17741     17743     17736     17738     17741     17764
     17737     17736     17735     17766     17737     17736     17738     17739
     17737     17736     17738     17740     17737     17736     17738     17741
     17738     17736     17735     17766     17738     17741     17743     17744
     17738     17741     17743     17745     17738     17741     17743     17753
     17738     17741     17764     17761     17738     17741     17764     17765
     17738     17741     17764     17766     17739     17738     17741     17742
     17739     17738     17741     17743     17739     17738     17741     17764
     17740     17738     17741     17742     17740     17738     17741     17743
     17740     17738     17741     17764     17741     17743     17745     17746
     17741     17743     17745     17747     17741     17743     17745     17748
     17741     17743     17753     17751     17741     17743     17753     17754
     17741     17743     17753     17758     17741     17764     17761     17758
     17741     17764     17761     17762     17741     17764     17761     17763
     17741     17764     17766     17767     17741     17764     17766     17771
     17742     17741     17743     17744     17742     17741     17743     17745
     17742     17741     17743     17753     17742     17741     17764     17761
     17742     17741     17764     17765     17742     17741     17764     17766
     17743     17741     17764     17761     17743     17741     17764     17765
     17743     17741     17764     17766     17743     17745     17748     17749
     17743     17745     17748     17750     17743     17745     17748     17751
     17743     17753     17751     17748     17743     17753     17751     17752
     17743     17753     17751     17777     17743     17753     17754     17755
     17743     17753     17754     17756     17743     17753     17754     17757
     17743     17753     17758     17759     17743     17753     17758     17760
     17743     17753     17758     17761     17744     17743     17741     17764
     17744     17743     17745     17746     17744     17743     17745     17747
     17744     17743     17745     17748     17744     17743     17753     17751
     17744     17743     17753     17754     17744     17743     17753     17758
     17745     17743     17741     17764     17745     17743     17753     17751
     17745     17743     17753     17754     17745     17743     17753     17758
     17745     17748     17751     17752     17745     17748     17751     17753
     17745     17748     17751     17777     17746     17745     17743     17753
     17746     17745     17748     17749     17746     17745     17748     17750
     17746     17745     17748     17751     17747     17745     17743     17753
     17747     17745     17748     17749     17747     17745     17748     17750
     17747     17745     17748     17751     17748     17745     17743     17753
     17748     17751     17753     17754     17748     17751     17753     17758
     17748     17751     17777     17778     17748     17751     17777     17779
     17748     17751     17777     17783     17749     17748     17751     17752
     17749     17748     17751     17753     17749     17748     17751     17777
     17750     17748     17751     17752     17750     17748     17751     17753
     17750     17748     17751     17777     17751     17753     17754     17755
     17751     17753     17754     17756     17751     17753     17754     17757
     17751     17753     17758     17759     17751     17753     17758     17760
     17751     17753     17758     17761     17751     17777     17779     17780
     17751     17777     17779     17781     17751     17777     17779     17782
     17751     17777     17783     17784     17751     17777     17783     17785
     17751     17777     17783     17786     17752     17751     17753     17754
     17752     17751     17753     17758     17752     17751     17777     17778
     17752     17751     17777     17779     17752     17751     17777     17783
     17753     17743     17741     17764     17753     17751     17777     17778
     17753     17751     17777     17779     17753     17751     17777     17783
     17753     17758     17761     17762     17753     17758     17761     17763
     17753     17758     17761     17764     17754     17753     17751     17777
     17754     17753     17758     17759     17754     17753     17758     17760
     17754     17753     17758     17761     17755     17754     17753     17758
     17756     17754     17753     17758     17757     17754     17753     17758
     17758     17753     17751     17777     17758     17761     17764     17765
     17758     17761     17764     17766     17759     17758     17761     17762
     17759     17758     17761     17763     17759     17758     17761     17764
     17760     17758     17761     17762     17760     17758     17761     17763
     17760     17758     17761     17764     17761     17764     17766     17767
     17761     17764     17766     17771     17762     17761     17764     17765
     17762     17761     17764     17766     17763     17761     17764     17765
     17763     17761     17764     17766     17764     17766     17767     17768
     17764     17766     17767     17769     17764     17766     17767     17770
     17764     17766     17771     17772     17764     17766     17771     17773
     17764     17766     17771     17774     17765     17764     17766     17767
     17765     17764     17766     17771     17766     17771     17774     17775
     17766     17771     17774     17776     17767     17766     17771     17772
     17767     17766     17771     17773     17767     17766     17771     17774
     17768     17767     17766     17771     17769     17767     17766     17771
     17770     17767     17766     17771     17772     17771     17774     17775
     17772     17771     17774     17776     17773     17771     17774     17775
     17773     17771     17774     17776     17777     17783     17786     17787
     17777     17783     17786     17788     17777     17783     17786     17789
     17778     17777     17779     17780     17778     17777     17779     17781
     17778     17777     17779     17782     17778     17777     17783     17784
     17778     17777     17783     17785     17778     17777     17783     17786
     17779     17777     17783     17784     17779     17777     17783     17785
     17779     17777     17783     17786     17780     17779     17777     17783
     17781     17779     17777     17783     17782     17779     17777     17783
     17783     17786     17789     17790     17783     17786     17789     17791
     17783     17786     17789     17792     17784     17783     17786     17787
     17784     17783     17786     17788     17784     17783     17786     17789
     17785     17783     17786     17787     17785     17783     17786     17788
     17785     17783     17786     17789     17786     17789     17792     17793
     17786     17789     17792     17794     17786     17789     17792     17798
     17787     17786     17789     17790     17787     17786     17789     17791
     17787     17786     17789     17792     17788     17786     17789     17790
     17788     17786     17789     17791     17788     17786     17789     17792
     17789     17792     17794     17795     17789     17792     17794     17796
     17789     17792     17794     17797     17789     17792     17798     17799
     17789     17792     17798     17800     17789     17792     17798     17801
     17790     17789     17792     17793     17790     17789     17792     17794
     17790     17789     17792     17798     17791     17789     17792     17793
     17791     17789     17792     17794     17791     17789     17792     17798
     17793     17792     17794     17795     17793     17792     17794     17796
     17793     17792     17794     17797     17793     17792     17798     17799
     17793     17792     17798     17800     17793     17792     17798     17801
     17794     17792     17798     17799     17794     17792     17798     17800
     17794     17792     17798     17801     17795     17794     17792     17798
     17796     17794     17792     17798     17797     17794     17792     17798
     17802     17803     17818     17819     17802     17803     17818     17820
     17802     17803     17818     17824     17803     17802     17806     17807
     17803     17802     17806     17808     17803     17802     17806     17809
     17803     17802     17810     17811     17803     17802     17810     17812
     17803     17802     17810     17813     17803     17802     17814     17815
     17803     17802     17814     17816     17803     17802     17814     17817
     17803     17818     17824     17821     17804     17803     17802     17806
     17804     17803     17802     17810     17804     17803     17802     17814
     17804     17803     17818     17819     17804     17803     17818     17820
     17804     17803     17818     17824     17805     17803     17802     17806
     17805     17803     17802     17810     17805     17803     17802     17814
     17805     17803     17818     17819     17805     17803     17818     17820
     17805     17803     17818     17824     17806     17802     17803     17818
     17806     17802     17810     17811     17806     17802     17810     17812
     17806     17802     17810     17813     17806     17802     17814     17815
     17806     17802     17814     17816     17806     17802     17814     17817
     17807     17806     17802     17810     17807     17806     17802     17814
     17808     17806     17802     17810     17808     17806     17802     17814
     17809     17806     17802     17810     17809     17806     17802     17814
     17810     17802     17803     17818     17810     17802     17814     17815
     17810     17802     17814     17816     17810     17802     17814     17817
     17811     17810     17802     17814     17812     17810     17802     17814
     17813     17810     17802     17814     17814     17802     17803     17818
     17818     17824     17821     17822     17818     17824     17821     17823
     17818     17824     17821     17825     17819     17818     17824     17821
     17820     17818     17824     17821     17821     17825     17826     17827
     17821     17825     17826     17828     17821     17825     17826     17829
     17822     17821     17825     17826     17823     17821     17825     17826
     17824     17821     17825     17826     17825     17826     17829     17830
     17825     17826     17829     17831     17825     17826     17829     17837
     17826     17829     17831     17832     17826     17829     17837     17838
     17826     17829     17837     17839     17826     17829     17837     17840
     17827     17826     17829     17830     17827     17826     17829     17831
     17827     17826     17829     17837     17828     17826     17829     17830
     17828     17826     17829     17831     17828     17826     17829     17837
     17829     17831     17832     17833     17829     17831     17832     17834
     17829     17837     17840     17841     17830     17829     17831     17832
     17830     17829     17837     17838     17830     17829     17837     17839
     17830     17829     17837     17840     17831     17829     17837     17838
     17831     17829     17837     17839     17831     17829     17837     17840
     17831     17832     17834     17835     17831     17832     17834     17836
     17831     17832     17834     17846     17832     17831     17829     17837
     17832     17834     17846     17847     17832     17834     17846     17848
     17832     17834     17846     17849     17833     17832     17834     17835
     17833     17832     17834     17836     17833     17832     17834     17846
     17834     17846     17849     17850     17834     17846     17849     17851
     17834     17846     17849     17852     17835     17834     17846     17847
     17835     17834     17846     17848     17835     17834     17846     17849
     17836     17834     17846     17847     17836     17834     17846     17848
     17836     17834     17846     17849     17837     17840     17841     17842
     17837     17840     17841     17843     17838     17837     17840     17841
     17839     17837     17840     17841     17840     17841     17843     17844
     17840     17841     17843     17845     17840     17841     17843     17893
     17841     17843     17893     17894     17841     17843     17893     17895
     17841     17843     17893     17896     17842     17841     17843     17844
     17842     17841     17843     17845     17842     17841     17843     17893
     17843     17893     17896     17897     17843     17893     17896     17898
     17843     17893     17896     17899     17844     17843     17893     17894
     17844     17843     17893     17895     17844     17843     17893     17896
     17845     17843     17893     17894     17845     17843     17893     17895
     17845     17843     17893     17896     17846     17849     17852     17853
     17846     17849     17852     17854     17846     17849     17852     17855
     17847     17846     17849     17850     17847     17846     17849     17851
     17847     17846     17849     17852     17848     17846     17849     17850
     17848     17846     17849     17851     17848     17846     17849     17852
     17849     17852     17855     17856     17849     17852     17855     17857
     17849     17852     17855     17858     17850     17849     17852     17853
     17850     17849     17852     17854     17850     17849     17852     17855
     17851     17849     17852     17853     17851     17849     17852     17854
     17851     17849     17852     17855     17852     17855     17858     17859
     17852     17855     17858     17860     17852     17855     17858     17861
     17853     17852     17855     17856     17853     17852     17855     17857
     17853     17852     17855     17858     17854     17852     17855     17856
     17854     17852     17855     17857     17854     17852     17855     17858
     17855     17858     17861     17862     17855     17858     17861     17863
     17855     17858     17861     17864     17856     17855     17858     17859
     17856     17855     17858     17860     17856     17855     17858     17861
     17857     17855     17858     17859     17857     17855     17858     17860
     17857     17855     17858     17861     17858     17861     17864     17865
     17858     17861     17864     17866     17859     17858     17861     17862
     17859     17858     17861     17863     17859     17858     17861     17864
     17860     17858     17861     17862     17860     17858     17861     17863
     17860     17858     17861     17864     17861     17864     17866     17867
     17861     17864     17866     17868     17862     17861     17864     17865
     17862     17861     17864     17866     17863     17861     17864     17865
     17863     17861     17864     17866     17864     17866     17868     17869
     17864     17866     17868     17870     17864     17866     17868     17871
     17865     17864     17866     17867     17865     17864     17866     17868
     17866     17868     17871     17872     17866     17868     17871     17873
     17866     17868     17871     17874     17867     17866     17868     17869
     17867     17866     17868     17870     17867     17866     17868     17871
     17868     17871     17874     17875     17868     17871     17874     17876
     17868     17871     17874     17877     17869     17868     17871     17872
     17869     17868     17871     17873     17869     17868     17871     17874
     17870     17868     17871     17872     17870     17868     17871     17873
     17870     17868     17871     17874     17871     17874     17877     17878
     17871     17874     17877     17879     17871     17874     17877     17880
     17872     17871     17874     17875     17872     17871     17874     17876
     17872     17871     17874     17877     17873     17871     17874     17875
     17873     17871     17874     17876     17873     17871     17874     17877
     17874     17877     17880     17881     17874     17877     17880     17882
     17874     17877     17880     17883     17875     17874     17877     17878
     17875     17874     17877     17879     17875     17874     17877     17880
     17876     17874     17877     17878     17876     17874     17877     17879
     17876     17874     17877     17880     17877     17880     17883     17884
     17877     17880     17883     17885     17877     17880     17883     17886
     17878     17877     17880     17881     17878     17877     17880     17882
     17878     17877     17880     17883     17879     17877     17880     17881
     17879     17877     17880     17882     17879     17877     17880     17883
     17880     17883     17886     17887     17880     17883     17886     17888
     17880     17883     17886     17889     17881     17880     17883     17884
     17881     17880     17883     17885     17881     17880     17883     17886
     17882     17880     17883     17884     17882     17880     17883     17885
     17882     17880     17883     17886     17883     17886     17889     17890
     17883     17886     17889     17891     17883     17886     17889     17892
     17884     17883     17886     17887     17884     17883     17886     17888
     17884     17883     17886     17889     17885     17883     17886     17887
     17885     17883     17886     17888     17885     17883     17886     17889
     17887     17886     17889     17890     17887     17886     17889     17891
     17887     17886     17889     17892     17888     17886     17889     17890
     17888     17886     17889     17891     17888     17886     17889     17892
     17893     17896     17899     17900     17893     17896     17899     17901
     17893     17896     17899     17902     17894     17893     17896     17897
     17894     17893     17896     17898     17894     17893     17896     17899
     17895     17893     17896     17897     17895     17893     17896     17898
     17895     17893     17896     17899     17896     17899     17902     17903
     17896     17899     17902     17904     17896     17899     17902     17905
     17897     17896     17899     17900     17897     17896     17899     17901
     17897     17896     17899     17902     17898     17896     17899     17900
     17898     17896     17899     17901     17898     17896     17899     17902
     17899     17902     17905     17906     17899     17902     17905     17907
     17899     17902     17905     17908     17900     17899     17902     17903
     17900     17899     17902     17904     17900     17899     17902     17905
     17901     17899     17902     17903     17901     17899     17902     17904
     17901     17899     17902     17905     17902     17905     17908     17909
     17902     17905     17908     17910     17902     17905     17908     17911
     17903     17902     17905     17906     17903     17902     17905     17907
     17903     17902     17905     17908     17904     17902     17905     17906
     17904     17902     17905     17907     17904     17902     17905     17908
     17905     17908     17911     17912     17905     17908     17911     17913
     17906     17905     17908     17909     17906     17905     17908     17910
     17906     17905     17908     17911     17907     17905     17908     17909
     17907     17905     17908     17910     17907     17905     17908     17911
     17908     17911     17913     17914     17908     17911     17913     17915
     17909     17908     17911     17912     17909     17908     17911     17913
     17910     17908     17911     17912     17910     17908     17911     17913
     17911     17913     17915     17916     17911     17913     17915     17917
     17911     17913     17915     17918     17912     17911     17913     17914
     17912     17911     17913     17915     17913     17915     17918     17919
     17913     17915     17918     17920     17913     17915     17918     17921
     17914     17913     17915     17916     17914     17913     17915     17917
     17914     17913     17915     17918     17915     17918     17921     17922
     17915     17918     17921     17923     17915     17918     17921     17924
     17916     17915     17918     17919     17916     17915     17918     17920
     17916     17915     17918     17921     17917     17915     17918     17919
     17917     17915     17918     17920     17917     17915     17918     17921
     17918     17921     17924     17925     17918     17921     17924     17926
     17918     17921     17924     17927     17919     17918     17921     17922
     17919     17918     17921     17923     17919     17918     17921     17924
     17920     17918     17921     17922     17920     17918     17921     17923
     17920     17918     17921     17924     17921     17924     17927     17928
     17921     17924     17927     17929     17921     17924     17927     17930
     17922     17921     17924     17925     17922     17921     17924     17926
     17922     17921     17924     17927     17923     17921     17924     17925
     17923     17921     17924     17926     17923     17921     17924     17927
     17924     17927     17930     17931     17924     17927     17930     17932
     17924     17927     17930     17933     17925     17924     17927     17928
     17925     17924     17927     17929     17925     17924     17927     17930
     17926     17924     17927     17928     17926     17924     17927     17929
     17926     17924     17927     17930     17927     17930     17933     17934
     17927     17930     17933     17935     17927     17930     17933     17936
     17928     17927     17930     17931     17928     17927     17930     17932
     17928     17927     17930     17933     17929     17927     17930     17931
     17929     17927     17930     17932     17929     17927     17930     17933
     17930     17933     17936     17937     17930     17933     17936     17938
     17930     17933     17936     17939     17931     17930     17933     17934
     17931     17930     17933     17935     17931     17930     17933     17936
     17932     17930     17933     17934     17932     17930     17933     17935
     17932     17930     17933     17936     17934     17933     17936     17937
     17934     17933     17936     17938     17934     17933     17936     17939
     17935     17933     17936     17937     17935     17933     17936     17938
     17935     17933     17936     17939     17940     17953     17956     17957
     17940     17953     17956     17958     17940     17953     17956     17963
     17941     17940     17945     17946     17941     17940     17945     17947
     17941     17940     17945     17948     17941     17940     17949     17950
     17941     17940     17949     17951     17941     17940     17949     17952
     17941     17940     17953     17954     17941     17940     17953     17955
     17941     17940     17953     17956     17942     17941     17940     17945
     17942     17941     17940     17949     17942     17941     17940     17953
     17943     17941     17940     17945     17943     17941     17940     17949
     17943     17941     17940     17953     17944     17941     17940     17945
     17944     17941     17940     17949     17944     17941     17940     17953
     17945     17940     17949     17950     17945     17940     17949     17951
     17945     17940     17949     17952     17945     17940     17953     17954
     17945     17940     17953     17955     17945     17940     17953     17956
     17946     17945     17940     17949     17946     17945     17940     17953
     17947     17945     17940     17949     17947     17945     17940     17953
     17948     17945     17940     17949     17948     17945     17940     17953
     17949     17940     17953     17954     17949     17940     17953     17955
     17949     17940     17953     17956     17950     17949     17940     17953
     17951     17949     17940     17953     17952     17949     17940     17953
     17953     17956     17963     17959     17954     17953     17956     17957
     17954     17953     17956     17958     17954     17953     17956     17963
     17955     17953     17956     17957     17955     17953     17956     17958
     17955     17953     17956     17963     17956     17963     17959     17960
     17956     17963     17959     17961     17956     17963     17959     17962
     17957     17956     17963     17959     17958     17956     17963     17959
     17959     17962     17964     17965     17959     17962     17964     17966
     17959     17962     17964     17969     17960     17959     17962     17964
     17961     17959     17962     17964     17962     17964     17969     17967
     17962     17964     17969     17970     17962     17964     17969     17971
     17963     17959     17962     17964     17964     17969     17967     17968
     17964     17969     17967     18019     17964     17969     17971     17972
     17964     17969     17971     17973     17964     17969     17971     17975
     17965     17964     17969     17967     17965     17964     17969     17970
     17965     17964     17969     17971     17966     17964     17969     17967
     17966     17964     17969     17970     17966     17964     17969     17971
     17967     17969     17971     17972     17967     17969     17971     17973
     17967     17969     17971     17975     17967     18019     18021     18022
     17967     18019     18021     18023     17967     18019     18021     18024
     17968     17967     17969     17970     17968     17967     17969     17971
     17968     17967     18019     18020     17968     17967     18019     18021
     17969     17967     18019     18020     17969     17967     18019     18021
     17969     17971     17973     17974     17969     17971     17975     17976
     17969     17971     17975     17977     17970     17969     17967     18019
     17970     17969     17971     17972     17970     17969     17971     17973
     17970     17969     17971     17975     17971     17969     17967     18019
     17971     17975     17977     17978     17971     17975     17977     17979
     17972     17971     17973     17974     17972     17971     17975     17976
     17972     17971     17975     17977     17973     17971     17975     17976
     17973     17971     17975     17977     17974     17973     17971     17975
     17975     17977     17979     17980     17975     17977     17979     17981
     17975     17977     17979     17982     17976     17975     17977     17978
     17976     17975     17977     17979     17977     17979     17982     17983
     17977     17979     17982     17984     17977     17979     17982     17985
     17978     17977     17979     17980     17978     17977     17979     17981
     17978     17977     17979     17982     17979     17982     17985     17986
     17979     17982     17985     17987     17979     17982     17985     17988
     17980     17979     17982     17983     17980     17979     17982     17984
     17980     17979     17982     17985     17981     17979     17982     17983
     17981     17979     17982     17984     17981     17979     17982     17985
     17982     17985     17988     17989     17982     17985     17988     17990
     17982     17985     17988     17991     17983     17982     17985     17986
     17983     17982     17985     17987     17983     17982     17985     17988
     17984     17982     17985     17986     17984     17982     17985     17987
     17984     17982     17985     17988     17985     17988     17991     17992
     17985     17988     17991     17993     17985     17988     17991     17994
     17986     17985     17988     17989     17986     17985     17988     17990
     17986     17985     17988     17991     17987     17985     17988     17989
     17987     17985     17988     17990     17987     17985     17988     17991
     17988     17991     17994     17995     17988     17991     17994     17996
     17988     17991     17994     17997     17989     17988     17991     17992
     17989     17988     17991     17993     17989     17988     17991     17994
     17990     17988     17991     17992     17990     17988     17991     17993
     17990     17988     17991     17994     17991     17994     17997     17998
     17991     17994     17997     17999     17991     17994     17997     18000
     17992     17991     17994     17995     17992     17991     17994     17996
     17992     17991     17994     17997     17993     17991     17994     17995
     17993     17991     17994     17996     17993     17991     17994     17997
     17994     17997     18000     18001     17994     17997     18000     18002
     17994     17997     18000     18003     17995     17994     17997     17998
     17995     17994     17997     17999     17995     17994     17997     18000
     17996     17994     17997     17998     17996     17994     17997     17999
     17996     17994     17997     18000     17997     18000     18003     18004
     17997     18000     18003     18005     17997     18000     18003     18006
     17998     17997     18000     18001     17998     17997     18000     18002
     17998     17997     18000     18003     17999     17997     18000     18001
     17999     17997     18000     18002     17999     17997     18000     18003
     18000     18003     18006     18007     18000     18003     18006     18008
     18000     18003     18006     18009     18001     18000     18003     18004
     18001     18000     18003     18005     18001     18000     18003     18006
     18002     18000     18003     18004     18002     18000     18003     18005
     18002     18000     18003     18006     18003     18006     18009     18010
     18003     18006     18009     18011     18003     18006     18009     18012
     18004     18003     18006     18007     18004     18003     18006     18008
     18004     18003     18006     18009     18005     18003     18006     18007
     18005     18003     18006     18008     18005     18003     18006     18009
     18006     18009     18012     18013     18006     18009     18012     18014
     18006     18009     18012     18015     18007     18006     18009     18010
     18007     18006     18009     18011     18007     18006     18009     18012
     18008     18006     18009     18010     18008     18006     18009     18011
     18008     18006     18009     18012     18009     18012     18015     18016
     18009     18012     18015     18017     18009     18012     18015     18018
     18010     18009     18012     18013     18010     18009     18012     18014
     18010     18009     18012     18015     18011     18009     18012     18013
     18011     18009     18012     18014     18011     18009     18012     18015
     18013     18012     18015     18016     18013     18012     18015     18017
     18013     18012     18015     18018     18014     18012     18015     18016
     18014     18012     18015     18017     18014     18012     18015     18018
     18019     18021     18024     18025     18019     18021     18024     18026
     18019     18021     18024     18027     18020     18019     18021     18022
     18020     18019     18021     18023     18020     18019     18021     18024
     18021     18024     18027     18028     18021     18024     18027     18029
     18021     18024     18027     18030     18022     18021     18024     18025
     18022     18021     18024     18026     18022     18021     18024     18027
     18023     18021     18024     18025     18023     18021     18024     18026
     18023     18021     18024     18027     18024     18027     18030     18031
     18024     18027     18030     18032     18024     18027     18030     18033
     18025     18024     18027     18028     18025     18024     18027     18029
     18025     18024     18027     18030     18026     18024     18027     18028
     18026     18024     18027     18029     18026     18024     18027     18030
     18027     18030     18033     18034     18027     18030     18033     18035
     18027     18030     18033     18036     18028     18027     18030     18031
     18028     18027     18030     18032     18028     18027     18030     18033
     18029     18027     18030     18031     18029     18027     18030     18032
     18029     18027     18030     18033     18030     18033     18036     18037
     18030     18033     18036     18038     18030     18033     18036     18039
     18031     18030     18033     18034     18031     18030     18033     18035
     18031     18030     18033     18036     18032     18030     18033     18034
     18032     18030     18033     18035     18032     18030     18033     18036
     18033     18036     18039     18040     18033     18036     18039     18041
     18033     18036     18039     18042     18034     18033     18036     18037
     18034     18033     18036     18038     18034     18033     18036     18039
     18035     18033     18036     18037     18035     18033     18036     18038
     18035     18033     18036     18039     18036     18039     18042     18043
     18036     18039     18042     18044     18036     18039     18042     18045
     18037     18036     18039     18040     18037     18036     18039     18041
     18037     18036     18039     18042     18038     18036     18039     18040
     18038     18036     18039     18041     18038     18036     18039     18042
     18039     18042     18045     18046     18039     18042     18045     18047
     18039     18042     18045     18048     18040     18039     18042     18043
     18040     18039     18042     18044     18040     18039     18042     18045
     18041     18039     18042     18043     18041     18039     18042     18044
     18041     18039     18042     18045     18042     18045     18048     18049
     18042     18045     18048     18050     18042     18045     18048     18051
     18043     18042     18045     18046     18043     18042     18045     18047
     18043     18042     18045     18048     18044     18042     18045     18046
     18044     18042     18045     18047     18044     18042     18045     18048
     18045     18048     18051     18052     18045     18048     18051     18053
     18045     18048     18051     18054     18046     18045     18048     18049
     18046     18045     18048     18050     18046     18045     18048     18051
     18047     18045     18048     18049     18047     18045     18048     18050
     18047     18045     18048     18051     18048     18051     18054     18055
     18048     18051     18054     18056     18048     18051     18054     18057
     18049     18048     18051     18052     18049     18048     18051     18053
     18049     18048     18051     18054     18050     18048     18051     18052
     18050     18048     18051     18053     18050     18048     18051     18054
     18051     18054     18057     18058     18051     18054     18057     18059
     18051     18054     18057     18060     18052     18051     18054     18055
     18052     18051     18054     18056     18052     18051     18054     18057
     18053     18051     18054     18055     18053     18051     18054     18056
     18053     18051     18054     18057     18054     18057     18060     18061
     18054     18057     18060     18062     18054     18057     18060     18063
     18055     18054     18057     18058     18055     18054     18057     18059
     18055     18054     18057     18060     18056     18054     18057     18058
     18056     18054     18057     18059     18056     18054     18057     18060
     18057     18060     18063     18064     18057     18060     18063     18065
     18057     18060     18063     18066     18058     18057     18060     18061
     18058     18057     18060     18062     18058     18057     18060     18063
     18059     18057     18060     18061     18059     18057     18060     18062
     18059     18057     18060     18063     18060     18063     18066     18067
     18060     18063     18066     18068     18060     18063     18066     18069
     18061     18060     18063     18064     18061     18060     18063     18065
     18061     18060     18063     18066     18062     18060     18063     18064
     18062     18060     18063     18065     18062     18060     18063     18066
     18063     18066     18069     18070     18063     18066     18069     18071
     18063     18066     18069     18072     18064     18063     18066     18067
     18064     18063     18066     18068     18064     18063     18066     18069
     18065     18063     18066     18067     18065     18063     18066     18068
     18065     18063     18066     18069     18066     18069     18072     18073
     18066     18069     18072     18074     18066     18069     18072     18075
     18067     18066     18069     18070     18067     18066     18069     18071
     18067     18066     18069     18072     18068     18066     18069     18070
     18068     18066     18069     18071     18068     18066     18069     18072
     18069     18072     18075     18076     18069     18072     18075     18077
     18069     18072     18075     18078     18070     18069     18072     18073
     18070     18069     18072     18074     18070     18069     18072     18075
     18071     18069     18072     18073     18071     18069     18072     18074
     18071     18069     18072     18075     18072     18075     18078     18079
     18072     18075     18078     18080     18072     18075     18078     18081
     18073     18072     18075     18076     18073     18072     18075     18077
     18073     18072     18075     18078     18074     18072     18075     18076
     18074     18072     18075     18077     18074     18072     18075     18078
     18075     18078     18081     18082     18075     18078     18081     18083
     18075     18078     18081     18084     18076     18075     18078     18079
     18076     18075     18078     18080     18076     18075     18078     18081
     18077     18075     18078     18079     18077     18075     18078     18080
     18077     18075     18078     18081     18078     18081     18084     18085
     18078     18081     18084     18086     18078     18081     18084     18087
     18079     18078     18081     18082     18079     18078     18081     18083
     18079     18078     18081     18084     18080     18078     18081     18082
     18080     18078     18081     18083     18080     18078     18081     18084
     18082     18081     18084     18085     18082     18081     18084     18086
     18082     18081     18084     18087     18083     18081     18084     18085
     18083     18081     18084     18086     18083     18081     18084     18087
     18088     18092     18095     18096     18088     18092     18095     18097
     18088     18092     18095     18102     18089     18088     18092     18093
     18089     18088     18092     18094     18089     18088     18092     18095
     18090     18088     18092     18093     18090     18088     18092     18094
     18090     18088     18092     18095     18091     18088     18092     18093
     18091     18088     18092     18094     18091     18088     18092     18095
     18092     18095     18102     18098     18093     18092     18095     18096
     18093     18092     18095     18097     18093     18092     18095     18102
     18094     18092     18095     18096     18094     18092     18095     18097
     18094     18092     18095     18102     18095     18102     18098     18099
     18095     18102     18098     18100     18095     18102     18098     18101
     18096     18095     18102     18098     18097     18095     18102     18098
     18098     18101     18103     18104     18098     18101     18103     18105
     18098     18101     18103     18106     18099     18098     18101     18103
     18100     18098     18101     18103     18101     18103     18106     18107
     18101     18103     18106     18108     18101     18103     18106     18114
     18102     18098     18101     18103     18103     18106     18108     18109
     18103     18106     18114     18115     18103     18106     18114     18116
     18103     18106     18114     18117     18104     18103     18106     18107
     18104     18103     18106     18108     18104     18103     18106     18114
     18105     18103     18106     18107     18105     18103     18106     18108
     18105     18103     18106     18114     18106     18108     18109     18110
     18106     18108     18109     18111     18106     18114     18117     18118
     18107     18106     18108     18109     18107     18106     18114     18115
     18107     18106     18114     18116     18107     18106     18114     18117
     18108     18106     18114     18115     18108     18106     18114     18116
     18108     18106     18114     18117     18108     18109     18111     18112
     18108     18109     18111     18113     18108     18109     18111     18123
     18109     18108     18106     18114     18109     18111     18123     18124
     18109     18111     18123     18125     18109     18111     18123     18126
     18110     18109     18111     18112     18110     18109     18111     18113
     18110     18109     18111     18123     18111     18123     18126     18127
     18111     18123     18126     18128     18111     18123     18126     18129
     18112     18111     18123     18124     18112     18111     18123     18125
     18112     18111     18123     18126     18113     18111     18123     18124
     18113     18111     18123     18125     18113     18111     18123     18126
     18114     18117     18118     18119     18114     18117     18118     18120
     18115     18114     18117     18118     18116     18114     18117     18118
     18117     18118     18120     18121     18117     18118     18120     18122
     18117     18118     18120     18170     18118     18120     18170     18171
     18118     18120     18170     18172     18118     18120     18170     18173
     18119     18118     18120     18121     18119     18118     18120     18122
     18119     18118     18120     18170     18120     18170     18173     18174
     18120     18170     18173     18175     18120     18170     18173     18176
     18121     18120     18170     18171     18121     18120     18170     18172
     18121     18120     18170     18173     18122     18120     18170     18171
     18122     18120     18170     18172     18122     18120     18170     18173
     18123     18126     18129     18130     18123     18126     18129     18131
     18123     18126     18129     18132     18124     18123     18126     18127
     18124     18123     18126     18128     18124     18123     18126     18129
     18125     18123     18126     18127     18125     18123     18126     18128
     18125     18123     18126     18129     18126     18129     18132     18133
     18126     18129     18132     18134     18126     18129     18132     18135
     18127     18126     18129     18130     18127     18126     18129     18131
     18127     18126     18129     18132     18128     18126     18129     18130
     18128     18126     18129     18131     18128     18126     18129     18132
     18129     18132     18135     18136     18129     18132     18135     18137
     18129     18132     18135     18138     18130     18129     18132     18133
     18130     18129     18132     18134     18130     18129     18132     18135
     18131     18129     18132     18133     18131     18129     18132     18134
     18131     18129     18132     18135     18132     18135     18138     18139
     18132     18135     18138     18140     18132     18135     18138     18141
     18133     18132     18135     18136     18133     18132     18135     18137
     18133     18132     18135     18138     18134     18132     18135     18136
     18134     18132     18135     18137     18134     18132     18135     18138
     18135     18138     18141     18142     18135     18138     18141     18143
     18136     18135     18138     18139     18136     18135     18138     18140
     18136     18135     18138     18141     18137     18135     18138     18139
     18137     18135     18138     18140     18137     18135     18138     18141
     18138     18141     18143     18144     18138     18141     18143     18145
     18139     18138     18141     18142     18139     18138     18141     18143
     18140     18138     18141     18142     18140     18138     18141     18143
     18141     18143     18145     18146     18141     18143     18145     18147
     18141     18143     18145     18148     18142     18141     18143     18144
     18142     18141     18143     18145     18143     18145     18148     18149
     18143     18145     18148     18150     18143     18145     18148     18151
     18144     18143     18145     18146     18144     18143     18145     18147
     18144     18143     18145     18148     18145     18148     18151     18152
     18145     18148     18151     18153     18145     18148     18151     18154
     18146     18145     18148     18149     18146     18145     18148     18150
     18146     18145     18148     18151     18147     18145     18148     18149
     18147     18145     18148     18150     18147     18145     18148     18151
     18148     18151     18154     18155     18148     18151     18154     18156
     18148     18151     18154     18157     18149     18148     18151     18152
     18149     18148     18151     18153     18149     18148     18151     18154
     18150     18148     18151     18152     18150     18148     18151     18153
     18150     18148     18151     18154     18151     18154     18157     18158
     18151     18154     18157     18159     18151     18154     18157     18160
     18152     18151     18154     18155     18152     18151     18154     18156
     18152     18151     18154     18157     18153     18151     18154     18155
     18153     18151     18154     18156     18153     18151     18154     18157
     18154     18157     18160     18161     18154     18157     18160     18162
     18154     18157     18160     18163     18155     18154     18157     18158
     18155     18154     18157     18159     18155     18154     18157     18160
     18156     18154     18157     18158     18156     18154     18157     18159
     18156     18154     18157     18160     18157     18160     18163     18164
     18157     18160     18163     18165     18157     18160     18163     18166
     18158     18157     18160     18161     18158     18157     18160     18162
     18158     18157     18160     18163     18159     18157     18160     18161
     18159     18157     18160     18162     18159     18157     18160     18163
     18160     18163     18166     18167     18160     18163     18166     18168
     18160     18163     18166     18169     18161     18160     18163     18164
     18161     18160     18163     18165     18161     18160     18163     18166
     18162     18160     18163     18164     18162     18160     18163     18165
     18162     18160     18163     18166     18164     18163     18166     18167
     18164     18163     18166     18168     18164     18163     18166     18169
     18165     18163     18166     18167     18165     18163     18166     18168
     18165     18163     18166     18169     18170     18173     18176     18177
     18170     18173     18176     18178     18170     18173     18176     18179
     18171     18170     18173     18174     18171     18170     18173     18175
     18171     18170     18173     18176     18172     18170     18173     18174
     18172     18170     18173     18175     18172     18170     18173     18176
     18173     18176     18179     18180     18173     18176     18179     18181
     18173     18176     18179     18182     18174     18173     18176     18177
     18174     18173     18176     18178     18174     18173     18176     18179
     18175     18173     18176     18177     18175     18173     18176     18178
     18175     18173     18176     18179     18176     18179     18182     18183
     18176     18179     18182     18184     18176     18179     18182     18185
     18177     18176     18179     18180     18177     18176     18179     18181
     18177     18176     18179     18182     18178     18176     18179     18180
     18178     18176     18179     18181     18178     18176     18179     18182
     18179     18182     18185     18186     18179     18182     18185     18187
     18179     18182     18185     18188     18180     18179     18182     18183
     18180     18179     18182     18184     18180     18179     18182     18185
     18181     18179     18182     18183     18181     18179     18182     18184
     18181     18179     18182     18185     18182     18185     18188     18189
     18182     18185     18188     18190     18183     18182     18185     18186
     18183     18182     18185     18187     18183     18182     18185     18188
     18184     18182     18185     18186     18184     18182     18185     18187
     18184     18182     18185     18188     18185     18188     18190     18191
     18185     18188     18190     18192     18186     18185     18188     18189
     18186     18185     18188     18190     18187     18185     18188     18189
     18187     18185     18188     18190     18188     18190     18192     18193
     18188     18190     18192     18194     18188     18190     18192     18195
     18189     18188     18190     18191     18189     18188     18190     18192
     18190     18192     18195     18196     18190     18192     18195     18197
     18190     18192     18195     18198     18191     18190     18192     18193
     18191     18190     18192     18194     18191     18190     18192     18195
     18192     18195     18198     18199     18192     18195     18198     18200
     18192     18195     18198     18201     18193     18192     18195     18196
     18193     18192     18195     18197     18193     18192     18195     18198
     18194     18192     18195     18196     18194     18192     18195     18197
     18194     18192     18195     18198     18195     18198     18201     18202
     18195     18198     18201     18203     18195     18198     18201     18204
     18196     18195     18198     18199     18196     18195     18198     18200
     18196     18195     18198     18201     18197     18195     18198     18199
     18197     18195     18198     18200     18197     18195     18198     18201
     18198     18201     18204     18205     18198     18201     18204     18206
     18198     18201     18204     18207     18199     18198     18201     18202
     18199     18198     18201     18203     18199     18198     18201     18204
     18200     18198     18201     18202     18200     18198     18201     18203
     18200     18198     18201     18204     18201     18204     18207     18208
     18201     18204     18207     18209     18201     18204     18207     18210
     18202     18201     18204     18205     18202     18201     18204     18206
     18202     18201     18204     18207     18203     18201     18204     18205
     18203     18201     18204     18206     18203     18201     18204     18207
     18204     18207     18210     18211     18204     18207     18210     18212
     18204     18207     18210     18213     18205     18204     18207     18208
     18205     18204     18207     18209     18205     18204     18207     18210
     18206     18204     18207     18208     18206     18204     18207     18209
     18206     18204     18207     18210     18207     18210     18213     18214
     18207     18210     18213     18215     18207     18210     18213     18216
     18208     18207     18210     18211     18208     18207     18210     18212
     18208     18207     18210     18213     18209     18207     18210     18211
     18209     18207     18210     18212     18209     18207     18210     18213
     18211     18210     18213     18214     18211     18210     18213     18215
     18211     18210     18213     18216     18212     18210     18213     18214
     18212     18210     18213     18215     18212     18210     18213     18216
     18217     18221     18224     18225     18217     18221     18224     18226
     18217     18221     18224     18231     18218     18217     18221     18222
     18218     18217     18221     18223     18218     18217     18221     18224
     18219     18217     18221     18222     18219     18217     18221     18223
     18219     18217     18221     18224     18220     18217     18221     18222
     18220     18217     18221     18223     18220     18217     18221     18224
     18221     18224     18231     18227     18222     18221     18224     18225
     18222     18221     18224     18226     18222     18221     18224     18231
     18223     18221     18224     18225     18223     18221     18224     18226
     18223     18221     18224     18231     18224     18231     18227     18228
     18224     18231     18227     18229     18224     18231     18227     18230
     18225     18224     18231     18227     18226     18224     18231     18227
     18227     18230     18232     18233     18227     18230     18232     18234
     18227     18230     18232     18235     18228     18227     18230     18232
     18229     18227     18230     18232     18230     18232     18235     18236
     18230     18232     18235     18237     18230     18232     18235     18243
     18231     18227     18230     18232     18232     18235     18237     18238
     18232     18235     18243     18244     18232     18235     18243     18245
     18232     18235     18243     18246     18233     18232     18235     18236
     18233     18232     18235     18237     18233     18232     18235     18243
     18234     18232     18235     18236     18234     18232     18235     18237
     18234     18232     18235     18243     18235     18237     18238     18239
     18235     18237     18238     18240     18235     18243     18246     18247
     18236     18235     18237     18238     18236     18235     18243     18244
     18236     18235     18243     18245     18236     18235     18243     18246
     18237     18235     18243     18244     18237     18235     18243     18245
     18237     18235     18243     18246     18237     18238     18240     18241
     18237     18238     18240     18242     18237     18238     18240     18252
     18238     18237     18235     18243     18238     18240     18252     18253
     18238     18240     18252     18254     18238     18240     18252     18255
     18239     18238     18240     18241     18239     18238     18240     18242
     18239     18238     18240     18252     18240     18252     18255     18256
     18240     18252     18255     18257     18240     18252     18255     18258
     18241     18240     18252     18253     18241     18240     18252     18254
     18241     18240     18252     18255     18242     18240     18252     18253
     18242     18240     18252     18254     18242     18240     18252     18255
     18243     18246     18247     18248     18243     18246     18247     18249
     18244     18243     18246     18247     18245     18243     18246     18247
     18246     18247     18249     18250     18246     18247     18249     18251
     18246     18247     18249     18299     18247     18249     18299     18300
     18247     18249     18299     18301     18247     18249     18299     18302
     18248     18247     18249     18250     18248     18247     18249     18251
     18248     18247     18249     18299     18249     18299     18302     18303
     18249     18299     18302     18304     18249     18299     18302     18305
     18250     18249     18299     18300     18250     18249     18299     18301
     18250     18249     18299     18302     18251     18249     18299     18300
     18251     18249     18299     18301     18251     18249     18299     18302
     18252     18255     18258     18259     18252     18255     18258     18260
     18252     18255     18258     18261     18253     18252     18255     18256
     18253     18252     18255     18257     18253     18252     18255     18258
     18254     18252     18255     18256     18254     18252     18255     18257
     18254     18252     18255     18258     18255     18258     18261     18262
     18255     18258     18261     18263     18255     18258     18261     18264
     18256     18255     18258     18259     18256     18255     18258     18260
     18256     18255     18258     18261     18257     18255     18258     18259
     18257     18255     18258     18260     18257     18255     18258     18261
     18258     18261     18264     18265     18258     18261     18264     18266
     18258     18261     18264     18267     18259     18258     18261     18262
     18259     18258     18261     18263     18259     18258     18261     18264
     18260     18258     18261     18262     18260     18258     18261     18263
     18260     18258     18261     18264     18261     18264     18267     18268
     18261     18264     18267     18269     18261     18264     18267     18270
     18262     18261     18264     18265     18262     18261     18264     18266
     18262     18261     18264     18267     18263     18261     18264     18265
     18263     18261     18264     18266     18263     18261     18264     18267
     18264     18267     18270     18271     18264     18267     18270     18272
     18265     18264     18267     18268     18265     18264     18267     18269
     18265     18264     18267     18270     18266     18264     18267     18268
     18266     18264     18267     18269     18266     18264     18267     18270
     18267     18270     18272     18273     18267     18270     18272     18274
     18268     18267     18270     18271     18268     18267     18270     18272
     18269     18267     18270     18271     18269     18267     18270     18272
     18270     18272     18274     18275     18270     18272     18274     18276
     18270     18272     18274     18277     18271     18270     18272     18273
     18271     18270     18272     18274     18272     18274     18277     18278
     18272     18274     18277     18279     18272     18274     18277     18280
     18273     18272     18274     18275     18273     18272     18274     18276
     18273     18272     18274     18277     18274     18277     18280     18281
     18274     18277     18280     18282     18274     18277     18280     18283
     18275     18274     18277     18278     18275     18274     18277     18279
     18275     18274     18277     18280     18276     18274     18277     18278
     18276     18274     18277     18279     18276     18274     18277     18280
     18277     18280     18283     18284     18277     18280     18283     18285
     18277     18280     18283     18286     18278     18277     18280     18281
     18278     18277     18280     18282     18278     18277     18280     18283
     18279     18277     18280     18281     18279     18277     18280     18282
     18279     18277     18280     18283     18280     18283     18286     18287
     18280     18283     18286     18288     18280     18283     18286     18289
     18281     18280     18283     18284     18281     18280     18283     18285
     18281     18280     18283     18286     18282     18280     18283     18284
     18282     18280     18283     18285     18282     18280     18283     18286
     18283     18286     18289     18290     18283     18286     18289     18291
     18283     18286     18289     18292     18284     18283     18286     18287
     18284     18283     18286     18288     18284     18283     18286     18289
     18285     18283     18286     18287     18285     18283     18286     18288
     18285     18283     18286     18289     18286     18289     18292     18293
     18286     18289     18292     18294     18286     18289     18292     18295
     18287     18286     18289     18290     18287     18286     18289     18291
     18287     18286     18289     18292     18288     18286     18289     18290
     18288     18286     18289     18291     18288     18286     18289     18292
     18289     18292     18295     18296     18289     18292     18295     18297
     18289     18292     18295     18298     18290     18289     18292     18293
     18290     18289     18292     18294     18290     18289     18292     18295
     18291     18289     18292     18293     18291     18289     18292     18294
     18291     18289     18292     18295     18293     18292     18295     18296
     18293     18292     18295     18297     18293     18292     18295     18298
     18294     18292     18295     18296     18294     18292     18295     18297
     18294     18292     18295     18298     18299     18302     18305     18306
     18299     18302     18305     18307     18299     18302     18305     18308
     18300     18299     18302     18303     18300     18299     18302     18304
     18300     18299     18302     18305     18301     18299     18302     18303
     18301     18299     18302     18304     18301     18299     18302     18305
     18302     18305     18308     18309     18302     18305     18308     18310
     18302     18305     18308     18311     18303     18302     18305     18306
     18303     18302     18305     18307     18303     18302     18305     18308
     18304     18302     18305     18306     18304     18302     18305     18307
     18304     18302     18305     18308     18305     18308     18311     18312
     18305     18308     18311     18313     18305     18308     18311     18314
     18306     18305     18308     18309     18306     18305     18308     18310
     18306     18305     18308     18311     18307     18305     18308     18309
     18307     18305     18308     18310     18307     18305     18308     18311
     18308     18311     18314     18315     18308     18311     18314     18316
     18308     18311     18314     18317     18309     18308     18311     18312
     18309     18308     18311     18313     18309     18308     18311     18314
     18310     18308     18311     18312     18310     18308     18311     18313
     18310     18308     18311     18314     18311     18314     18317     18318
     18311     18314     18317     18319     18312     18311     18314     18315
     18312     18311     18314     18316     18312     18311     18314     18317
     18313     18311     18314     18315     18313     18311     18314     18316
     18313     18311     18314     18317     18314     18317     18319     18320
     18314     18317     18319     18321     18315     18314     18317     18318
     18315     18314     18317     18319     18316     18314     18317     18318
     18316     18314     18317     18319     18317     18319     18321     18322
     18317     18319     18321     18323     18317     18319     18321     18324
     18318     18317     18319     18320     18318     18317     18319     18321
     18319     18321     18324     18325     18319     18321     18324     18326
     18319     18321     18324     18327     18320     18319     18321     18322
     18320     18319     18321     18323     18320     18319     18321     18324
     18321     18324     18327     18328     18321     18324     18327     18329
     18321     18324     18327     18330     18322     18321     18324     18325
     18322     18321     18324     18326     18322     18321     18324     18327
     18323     18321     18324     18325     18323     18321     18324     18326
     18323     18321     18324     18327     18324     18327     18330     18331
     18324     18327     18330     18332     18324     18327     18330     18333
     18325     18324     18327     18328     18325     18324     18327     18329
     18325     18324     18327     18330     18326     18324     18327     18328
     18326     18324     18327     18329     18326     18324     18327     18330
     18327     18330     18333     18334     18327     18330     18333     18335
     18327     18330     18333     18336     18328     18327     18330     18331
     18328     18327     18330     18332     18328     18327     18330     18333
     18329     18327     18330     18331     18329     18327     18330     18332
     18329     18327     18330     18333     18330     18333     18336     18337
     18330     18333     18336     18338     18330     18333     18336     18339
     18331     18330     18333     18334     18331     18330     18333     18335
     18331     18330     18333     18336     18332     18330     18333     18334
     18332     18330     18333     18335     18332     18330     18333     18336
     18333     18336     18339     18340     18333     18336     18339     18341
     18333     18336     18339     18342     18334     18333     18336     18337
     18334     18333     18336     18338     18334     18333     18336     18339
     18335     18333     18336     18337     18335     18333     18336     18338
     18335     18333     18336     18339     18336     18339     18342     18343
     18336     18339     18342     18344     18336     18339     18342     18345
     18337     18336     18339     18340     18337     18336     18339     18341
     18337     18336     18339     18342     18338     18336     18339     18340
     18338     18336     18339     18341     18338     18336     18339     18342
     18340     18339     18342     18343     18340     18339     18342     18344
     18340     18339     18342     18345     18341     18339     18342     18343
     18341     18339     18342     18344     18341     18339     18342     18345
     18346     18350     18353     18354     18346     18350     18353     18384
     18346     18392     18389     18384     18346     18392     18389     18390
     18346     18392     18389     18391     18347     18346     18348     18349
     18347     18346     18350     18351     18347     18346     18350     18352
     18347     18346     18350     18353     18347     18346     18392     18389
     18347     18346     18392     18393     18347     18346     18392     18394
     18348     18346     18350     18351     18348     18346     18350     18352
     18348     18346     18350     18353     18348     18346     18392     18389
     18348     18346     18392     18393     18348     18346     18392     18394
     18349     18348     18346     18350     18349     18348     18346     18392
     18350     18346     18392     18389     18350     18346     18392     18393
     18350     18346     18392     18394     18350     18353     18354     18355
     18350     18353     18354     18356     18350     18353     18384     18382
     18350     18353     18384     18385     18350     18353     18384     18389
     18351     18350     18346     18392     18351     18350     18353     18354
     18351     18350     18353     18384     18352     18350     18346     18392
     18352     18350     18353     18354     18352     18350     18353     18384
     18353     18350     18346     18392     18353     18354     18356     18357
     18353     18354     18356     18358     18353     18354     18356     18359
     18353     18384     18382     18359     18353     18384     18382     18379
     18353     18384     18382     18383     18353     18384     18385     18386
     18353     18384     18385     18387     18353     18384     18385     18388
     18353     18384     18389     18390     18353     18384     18389     18391
     18353     18384     18389     18392     18354     18353     18384     18382
     18354     18353     18384     18385     18354     18353     18384     18389
     18354     18356     18359     18360     18354     18356     18359     18361
     18354     18356     18359     18382     18355     18354     18353     18384
     18355     18354     18356     18357     18355     18354     18356     18358
     18355     18354     18356     18359     18356     18354     18353     18384
     18356     18359     18361     18362     18356     18359     18361     18363
     18356     18359     18361     18371     18356     18359     18382     18379
     18356     18359     18382     18383     18356     18359     18382     18384
     18357     18356     18359     18360     18357     18356     18359     18361
     18357     18356     18359     18382     18358     18356     18359     18360
     18358     18356     18359     18361     18358     18356     18359     18382
     18359     18361     18363     18364     18359     18361     18363     18365
     18359     18361     18363     18366     18359     18361     18371     18369
     18359     18361     18371     18372     18359     18361     18371     18376
     18359     18382     18379     18376     18359     18382     18379     18380
     18359     18382     18379     18381     18359     18382     18384     18385
     18359     18382     18384     18389     18360     18359     18361     18362
     18360     18359     18361     18363     18360     18359     18361     18371
     18360     18359     18382     18379     18360     18359     18382     18383
     18360     18359     18382     18384     18361     18359     18382     18379
     18361     18359     18382     18383     18361     18359     18382     18384
     18361     18363     18366     18367     18361     18363     18366     18368
     18361     18363     18366     18369     18361     18371     18369     18366
     18361     18371     18369     18370     18361     18371     18369     18395
     18361     18371     18372     18373     18361     18371     18372     18374
     18361     18371     18372     18375     18361     18371     18376     18377
     18361     18371     18376     18378     18361     18371     18376     18379
     18362     18361     18359     18382     18362     18361     18363     18364
     18362     18361     18363     18365     18362     18361     18363     18366
     18362     18361     18371     18369     18362     18361     18371     18372
     18362     18361     18371     18376     18363     18361     18359     18382
     18363     18361     18371     18369     18363     18361     18371     18372
     18363     18361     18371     18376     18363     18366     18369     18370
     18363     18366     18369     18371     18363     18366     18369     18395
     18364     18363     18361     18371     18364     18363     18366     18367
     18364     18363     18366     18368     18364     18363     18366     18369
     18365     18363     18361     18371     18365     18363     18366     18367
     18365     18363     18366     18368     18365     18363     18366     18369
     18366     18363     18361     18371     18366     18369     18371     18372
     18366     18369     18371     18376     18366     18369     18395     18396
     18366     18369     18395     18397     18366     18369     18395     18401
     18367     18366     18369     18370     18367     18366     18369     18371
     18367     18366     18369     18395     18368     18366     18369     18370
     18368     18366     18369     18371     18368     18366     18369     18395
     18369     18371     18372     18373     18369     18371     18372     18374
     18369     18371     18372     18375     18369     18371     18376     18377
     18369     18371     18376     18378     18369     18371     18376     18379
     18369     18395     18397     18398     18369     18395     18397     18399
     18369     18395     18397     18400     18369     18395     18401     18402
     18369     18395     18401     18403     18369     18395     18401     18404
     18370     18369     18371     18372     18370     18369     18371     18376
     18370     18369     18395     18396     18370     18369     18395     18397
     18370     18369     18395     18401     18371     18361     18359     18382
     18371     18369     18395     18396     18371     18369     18395     18397
     18371     18369     18395     18401     18371     18376     18379     18380
     18371     18376     18379     18381     18371     18376     18379     18382
     18372     18371     18369     18395     18372     18371     18376     18377
     18372     18371     18376     18378     18372     18371     18376     18379
     18373     18372     18371     18376     18374     18372     18371     18376
     18375     18372     18371     18376     18376     18371     18369     18395
     18376     18379     18382     18383     18376     18379     18382     18384
     18377     18376     18379     18380     18377     18376     18379     18381
     18377     18376     18379     18382     18378     18376     18379     18380
     18378     18376     18379     18381     18378     18376     18379     18382
     18379     18382     18384     18385     18379     18382     18384     18389
     18380     18379     18382     18383     18380     18379     18382     18384
     18381     18379     18382     18383     18381     18379     18382     18384
     18382     18384     18385     18386     18382     18384     18385     18387
     18382     18384     18385     18388     18382     18384     18389     18390
     18382     18384     18389     18391     18382     18384     18389     18392
     18383     18382     18384     18385     18383     18382     18384     18389
     18384     18389     18392     18393     18384     18389     18392     18394
     18385     18384     18389     18390     18385     18384     18389     18391
     18385     18384     18389     18392     18386     18385     18384     18389
     18387     18385     18384     18389     18388     18385     18384     18389
     18390     18389     18392     18393     18390     18389     18392     18394
     18391     18389     18392     18393     18391     18389     18392     18394
     18395     18401     18404     18405     18395     18401     18404     18406
     18395     18401     18404     18407     18396     18395     18397     18398
     18396     18395     18397     18399     18396     18395     18397     18400
     18396     18395     18401     18402     18396     18395     18401     18403
     18396     18395     18401     18404     18397     18395     18401     18402
     18397     18395     18401     18403     18397     18395     18401     18404
     18398     18397     18395     18401     18399     18397     18395     18401
     18400     18397     18395     18401     18401     18404     18407     18408
     18401     18404     18407     18409     18401     18404     18407     18410
     18402     18401     18404     18405     18402     18401     18404     18406
     18402     18401     18404     18407     18403     18401     18404     18405
     18403     18401     18404     18406     18403     18401     18404     18407
     18404     18407     18410     18411     18404     18407     18410     18412
     18404     18407     18410     18416     18405     18404     18407     18408
     18405     18404     18407     18409     18405     18404     18407     18410
     18406     18404     18407     18408     18406     18404     18407     18409
     18406     18404     18407     18410     18407     18410     18412     18413
     18407     18410     18412     18414     18407     18410     18412     18415
     18407     18410     18416     18417     18407     18410     18416     18418
     18407     18410     18416     18419     18408     18407     18410     18411
     18408     18407     18410     18412     18408     18407     18410     18416
     18409     18407     18410     18411     18409     18407     18410     18412
     18409     18407     18410     18416     18411     18410     18412     18413
     18411     18410     18412     18414     18411     18410     18412     18415
     18411     18410     18416     18417     18411     18410     18416     18418
     18411     18410     18416     18419     18412     18410     18416     18417
     18412     18410     18416     18418     18412     18410     18416     18419
     18413     18412     18410     18416     18414     18412     18410     18416
     18415     18412     18410     18416     18420     18424     18427     18428
     18420     18424     18427     18429     18420     18424     18427     18434
     18421     18420     18424     18425     18421     18420     18424     18426
     18421     18420     18424     18427     18422     18420     18424     18425
     18422     18420     18424     18426     18422     18420     18424     18427
     18423     18420     18424     18425     18423     18420     18424     18426
     18423     18420     18424     18427     18424     18427     18434     18430
     18425     18424     18427     18428     18425     18424     18427     18429
     18425     18424     18427     18434     18426     18424     18427     18428
     18426     18424     18427     18429     18426     18424     18427     18434
     18427     18434     18430     18431     18427     18434     18430     18432
     18427     18434     18430     18433     18428     18427     18434     18430
     18429     18427     18434     18430     18430     18433     18435     18436
     18430     18433     18435     18437     18430     18433     18435     18438
     18431     18430     18433     18435     18432     18430     18433     18435
     18433     18435     18438     18439     18433     18435     18438     18440
     18433     18435     18438     18446     18434     18430     18433     18435
     18435     18438     18440     18441     18435     18438     18446     18447
     18435     18438     18446     18448     18435     18438     18446     18449
     18436     18435     18438     18439     18436     18435     18438     18440
     18436     18435     18438     18446     18437     18435     18438     18439
     18437     18435     18438     18440     18437     18435     18438     18446
     18438     18440     18441     18442     18438     18440     18441     18443
     18438     18446     18449     18450     18439     18438     18440     18441
     18439     18438     18446     18447     18439     18438     18446     18448
     18439     18438     18446     18449     18440     18438     18446     18447
     18440     18438     18446     18448     18440     18438     18446     18449
     18440     18441     18443     18444     18440     18441     18443     18445
     18440     18441     18443     18455     18441     18440     18438     18446
     18441     18443     18455     18456     18441     18443     18455     18457
     18441     18443     18455     18458     18442     18441     18443     18444
     18442     18441     18443     18445     18442     18441     18443     18455
     18443     18455     18458     18459     18443     18455     18458     18460
     18443     18455     18458     18461     18444     18443     18455     18456
     18444     18443     18455     18457     18444     18443     18455     18458
     18445     18443     18455     18456     18445     18443     18455     18457
     18445     18443     18455     18458     18446     18449     18450     18451
     18446     18449     18450     18452     18447     18446     18449     18450
     18448     18446     18449     18450     18449     18450     18452     18453
     18449     18450     18452     18454     18449     18450     18452     18502
     18450     18452     18502     18503     18450     18452     18502     18504
     18450     18452     18502     18505     18451     18450     18452     18453
     18451     18450     18452     18454     18451     18450     18452     18502
     18452     18502     18505     18506     18452     18502     18505     18507
     18452     18502     18505     18508     18453     18452     18502     18503
     18453     18452     18502     18504     18453     18452     18502     18505
     18454     18452     18502     18503     18454     18452     18502     18504
     18454     18452     18502     18505     18455     18458     18461     18462
     18455     18458     18461     18463     18455     18458     18461     18464
     18456     18455     18458     18459     18456     18455     18458     18460
     18456     18455     18458     18461     18457     18455     18458     18459
     18457     18455     18458     18460     18457     18455     18458     18461
     18458     18461     18464     18465     18458     18461     18464     18466
     18458     18461     18464     18467     18459     18458     18461     18462
     18459     18458     18461     18463     18459     18458     18461     18464
     18460     18458     18461     18462     18460     18458     18461     18463
     18460     18458     18461     18464     18461     18464     18467     18468
     18461     18464     18467     18469     18461     18464     18467     18470
     18462     18461     18464     18465     18462     18461     18464     18466
     18462     18461     18464     18467     18463     18461     18464     18465
     18463     18461     18464     18466     18463     18461     18464     18467
     18464     18467     18470     18471     18464     18467     18470     18472
     18464     18467     18470     18473     18465     18464     18467     18468
     18465     18464     18467     18469     18465     18464     18467     18470
     18466     18464     18467     18468     18466     18464     18467     18469
     18466     18464     18467     18470     18467     18470     18473     18474
     18467     18470     18473     18475     18468     18467     18470     18471
     18468     18467     18470     18472     18468     18467     18470     18473
     18469     18467     18470     18471     18469     18467     18470     18472
     18469     18467     18470     18473     18470     18473     18475     18476
     18470     18473     18475     18477     18471     18470     18473     18474
     18471     18470     18473     18475     18472     18470     18473     18474
     18472     18470     18473     18475     18473     18475     18477     18478
     18473     18475     18477     18479     18473     18475     18477     18480
     18474     18473     18475     18476     18474     18473     18475     18477
     18475     18477     18480     18481     18475     18477     18480     18482
     18475     18477     18480     18483     18476     18475     18477     18478
     18476     18475     18477     18479     18476     18475     18477     18480
     18477     18480     18483     18484     18477     18480     18483     18485
     18477     18480     18483     18486     18478     18477     18480     18481
     18478     18477     18480     18482     18478     18477     18480     18483
     18479     18477     18480     18481     18479     18477     18480     18482
     18479     18477     18480     18483     18480     18483     18486     18487
     18480     18483     18486     18488     18480     18483     18486     18489
     18481     18480     18483     18484     18481     18480     18483     18485
     18481     18480     18483     18486     18482     18480     18483     18484
     18482     18480     18483     18485     18482     18480     18483     18486
     18483     18486     18489     18490     18483     18486     18489     18491
     18483     18486     18489     18492     18484     18483     18486     18487
     18484     18483     18486     18488     18484     18483     18486     18489
     18485     18483     18486     18487     18485     18483     18486     18488
     18485     18483     18486     18489     18486     18489     18492     18493
     18486     18489     18492     18494     18486     18489     18492     18495
     18487     18486     18489     18490     18487     18486     18489     18491
     18487     18486     18489     18492     18488     18486     18489     18490
     18488     18486     18489     18491     18488     18486     18489     18492
     18489     18492     18495     18496     18489     18492     18495     18497
     18489     18492     18495     18498     18490     18489     18492     18493
     18490     18489     18492     18494     18490     18489     18492     18495
     18491     18489     18492     18493     18491     18489     18492     18494
     18491     18489     18492     18495     18492     18495     18498     18499
     18492     18495     18498     18500     18492     18495     18498     18501
     18493     18492     18495     18496     18493     18492     18495     18497
     18493     18492     18495     18498     18494     18492     18495     18496
     18494     18492     18495     18497     18494     18492     18495     18498
     18496     18495     18498     18499     18496     18495     18498     18500
     18496     18495     18498     18501     18497     18495     18498     18499
     18497     18495     18498     18500     18497     18495     18498     18501
     18502     18505     18508     18509     18502     18505     18508     18510
     18502     18505     18508     18511     18503     18502     18505     18506
     18503     18502     18505     18507     18503     18502     18505     18508
     18504     18502     18505     18506     18504     18502     18505     18507
     18504     18502     18505     18508     18505     18508     18511     18512
     18505     18508     18511     18513     18505     18508     18511     18514
     18506     18505     18508     18509     18506     18505     18508     18510
     18506     18505     18508     18511     18507     18505     18508     18509
     18507     18505     18508     18510     18507     18505     18508     18511
     18508     18511     18514     18515     18508     18511     18514     18516
     18508     18511     18514     18517     18509     18508     18511     18512
     18509     18508     18511     18513     18509     18508     18511     18514
     18510     18508     18511     18512     18510     18508     18511     18513
     18510     18508     18511     18514     18511     18514     18517     18518
     18511     18514     18517     18519     18511     18514     18517     18520
     18512     18511     18514     18515     18512     18511     18514     18516
     18512     18511     18514     18517     18513     18511     18514     18515
     18513     18511     18514     18516     18513     18511     18514     18517
     18514     18517     18520     18521     18514     18517     18520     18522
     18515     18514     18517     18518     18515     18514     18517     18519
     18515     18514     18517     18520     18516     18514     18517     18518
     18516     18514     18517     18519     18516     18514     18517     18520
     18517     18520     18522     18523     18517     18520     18522     18524
     18518     18517     18520     18521     18518     18517     18520     18522
     18519     18517     18520     18521     18519     18517     18520     18522
     18520     18522     18524     18525     18520     18522     18524     18526
     18520     18522     18524     18527     18521     18520     18522     18523
     18521     18520     18522     18524     18522     18524     18527     18528
     18522     18524     18527     18529     18522     18524     18527     18530
     18523     18522     18524     18525     18523     18522     18524     18526
     18523     18522     18524     18527     18524     18527     18530     18531
     18524     18527     18530     18532     18524     18527     18530     18533
     18525     18524     18527     18528     18525     18524     18527     18529
     18525     18524     18527     18530     18526     18524     18527     18528
     18526     18524     18527     18529     18526     18524     18527     18530
     18527     18530     18533     18534     18527     18530     18533     18535
     18527     18530     18533     18536     18528     18527     18530     18531
     18528     18527     18530     18532     18528     18527     18530     18533
     18529     18527     18530     18531     18529     18527     18530     18532
     18529     18527     18530     18533     18530     18533     18536     18537
     18530     18533     18536     18538     18530     18533     18536     18539
     18531     18530     18533     18534     18531     18530     18533     18535
     18531     18530     18533     18536     18532     18530     18533     18534
     18532     18530     18533     18535     18532     18530     18533     18536
     18533     18536     18539     18540     18533     18536     18539     18541
     18533     18536     18539     18542     18534     18533     18536     18537
     18534     18533     18536     18538     18534     18533     18536     18539
     18535     18533     18536     18537     18535     18533     18536     18538
     18535     18533     18536     18539     18536     18539     18542     18543
     18536     18539     18542     18544     18536     18539     18542     18545
     18537     18536     18539     18540     18537     18536     18539     18541
     18537     18536     18539     18542     18538     18536     18539     18540
     18538     18536     18539     18541     18538     18536     18539     18542
     18539     18542     18545     18546     18539     18542     18545     18547
     18539     18542     18545     18548     18540     18539     18542     18543
     18540     18539     18542     18544     18540     18539     18542     18545
     18541     18539     18542     18543     18541     18539     18542     18544
     18541     18539     18542     18545     18543     18542     18545     18546
     18543     18542     18545     18547     18543     18542     18545     18548
     18544     18542     18545     18546     18544     18542     18545     18547
     18544     18542     18545     18548     18549     18562     18565     18566
     18549     18562     18565     18567     18549     18562     18565     18572
     18550     18549     18554     18555     18550     18549     18554     18556
     18550     18549     18554     18557     18550     18549     18558     18559
     18550     18549     18558     18560     18550     18549     18558     18561
     18550     18549     18562     18563     18550     18549     18562     18564
     18550     18549     18562     18565     18551     18550     18549     18554
     18551     18550     18549     18558     18551     18550     18549     18562
     18552     18550     18549     18554     18552     18550     18549     18558
     18552     18550     18549     18562     18553     18550     18549     18554
     18553     18550     18549     18558     18553     18550     18549     18562
     18554     18549     18558     18559     18554     18549     18558     18560
     18554     18549     18558     18561     18554     18549     18562     18563
     18554     18549     18562     18564     18554     18549     18562     18565
     18555     18554     18549     18558     18555     18554     18549     18562
     18556     18554     18549     18558     18556     18554     18549     18562
     18557     18554     18549     18558     18557     18554     18549     18562
     18558     18549     18562     18563     18558     18549     18562     18564
     18558     18549     18562     18565     18559     18558     18549     18562
     18560     18558     18549     18562     18561     18558     18549     18562
     18562     18565     18572     18568     18563     18562     18565     18566
     18563     18562     18565     18567     18563     18562     18565     18572
     18564     18562     18565     18566     18564     18562     18565     18567
     18564     18562     18565     18572     18565     18572     18568     18569
     18565     18572     18568     18570     18565     18572     18568     18571
     18566     18565     18572     18568     18567     18565     18572     18568
     18568     18571     18573     18574     18568     18571     18573     18575
     18568     18571     18573     18578     18569     18568     18571     18573
     18570     18568     18571     18573     18571     18573     18578     18576
     18571     18573     18578     18579     18571     18573     18578     18580
     18572     18568     18571     18573     18573     18578     18576     18577
     18573     18578     18576     18628     18573     18578     18580     18581
     18573     18578     18580     18582     18573     18578     18580     18584
     18574     18573     18578     18576     18574     18573     18578     18579
     18574     18573     18578     18580     18575     18573     18578     18576
     18575     18573     18578     18579     18575     18573     18578     18580
     18576     18578     18580     18581     18576     18578     18580     18582
     18576     18578     18580     18584     18576     18628     18630     18631
     18576     18628     18630     18632     18576     18628     18630     18633
     18577     18576     18578     18579     18577     18576     18578     18580
     18577     18576     18628     18629     18577     18576     18628     18630
     18578     18576     18628     18629     18578     18576     18628     18630
     18578     18580     18582     18583     18578     18580     18584     18585
     18578     18580     18584     18586     18579     18578     18576     18628
     18579     18578     18580     18581     18579     18578     18580     18582
     18579     18578     18580     18584     18580     18578     18576     18628
     18580     18584     18586     18587     18580     18584     18586     18588
     18581     18580     18582     18583     18581     18580     18584     18585
     18581     18580     18584     18586     18582     18580     18584     18585
     18582     18580     18584     18586     18583     18582     18580     18584
     18584     18586     18588     18589     18584     18586     18588     18590
     18584     18586     18588     18591     18585     18584     18586     18587
     18585     18584     18586     18588     18586     18588     18591     18592
     18586     18588     18591     18593     18586     18588     18591     18594
     18587     18586     18588     18589     18587     18586     18588     18590
     18587     18586     18588     18591     18588     18591     18594     18595
     18588     18591     18594     18596     18588     18591     18594     18597
     18589     18588     18591     18592     18589     18588     18591     18593
     18589     18588     18591     18594     18590     18588     18591     18592
     18590     18588     18591     18593     18590     18588     18591     18594
     18591     18594     18597     18598     18591     18594     18597     18599
     18591     18594     18597     18600     18592     18591     18594     18595
     18592     18591     18594     18596     18592     18591     18594     18597
     18593     18591     18594     18595     18593     18591     18594     18596
     18593     18591     18594     18597     18594     18597     18600     18601
     18594     18597     18600     18602     18594     18597     18600     18603
     18595     18594     18597     18598     18595     18594     18597     18599
     18595     18594     18597     18600     18596     18594     18597     18598
     18596     18594     18597     18599     18596     18594     18597     18600
     18597     18600     18603     18604     18597     18600     18603     18605
     18597     18600     18603     18606     18598     18597     18600     18601
     18598     18597     18600     18602     18598     18597     18600     18603
     18599     18597     18600     18601     18599     18597     18600     18602
     18599     18597     18600     18603     18600     18603     18606     18607
     18600     18603     18606     18608     18600     18603     18606     18609
     18601     18600     18603     18604     18601     18600     18603     18605
     18601     18600     18603     18606     18602     18600     18603     18604
     18602     18600     18603     18605     18602     18600     18603     18606
     18603     18606     18609     18610     18603     18606     18609     18611
     18603     18606     18609     18612     18604     18603     18606     18607
     18604     18603     18606     18608     18604     18603     18606     18609
     18605     18603     18606     18607     18605     18603     18606     18608
     18605     18603     18606     18609     18606     18609     18612     18613
     18606     18609     18612     18614     18606     18609     18612     18615
     18607     18606     18609     18610     18607     18606     18609     18611
     18607     18606     18609     18612     18608     18606     18609     18610
     18608     18606     18609     18611     18608     18606     18609     18612
     18609     18612     18615     18616     18609     18612     18615     18617
     18609     18612     18615     18618     18610     18609     18612     18613
     18610     18609     18612     18614     18610     18609     18612     18615
     18611     18609     18612     18613     18611     18609     18612     18614
     18611     18609     18612     18615     18612     18615     18618     18619
     18612     18615     18618     18620     18612     18615     18618     18621
     18613     18612     18615     18616     18613     18612     18615     18617
     18613     18612     18615     18618     18614     18612     18615     18616
     18614     18612     18615     18617     18614     18612     18615     18618
     18615     18618     18621     18622     18615     18618     18621     18623
     18615     18618     18621     18624     18616     18615     18618     18619
     18616     18615     18618     18620     18616     18615     18618     18621
     18617     18615     18618     18619     18617     18615     18618     18620
     18617     18615     18618     18621     18618     18621     18624     18625
     18618     18621     18624     18626     18618     18621     18624     18627
     18619     18618     18621     18622     18619     18618     18621     18623
     18619     18618     18621     18624     18620     18618     18621     18622
     18620     18618     18621     18623     18620     18618     18621     18624
     18622     18621     18624     18625     18622     18621     18624     18626
     18622     18621     18624     18627     18623     18621     18624     18625
     18623     18621     18624     18626     18623     18621     18624     18627
     18628     18630     18633     18634     18628     18630     18633     18635
     18628     18630     18633     18636     18629     18628     18630     18631
     18629     18628     18630     18632     18629     18628     18630     18633
     18630     18633     18636     18637     18630     18633     18636     18638
     18630     18633     18636     18639     18631     18630     18633     18634
     18631     18630     18633     18635     18631     18630     18633     18636
     18632     18630     18633     18634     18632     18630     18633     18635
     18632     18630     18633     18636     18633     18636     18639     18640
     18633     18636     18639     18641     18633     18636     18639     18642
     18634     18633     18636     18637     18634     18633     18636     18638
     18634     18633     18636     18639     18635     18633     18636     18637
     18635     18633     18636     18638     18635     18633     18636     18639
     18636     18639     18642     18643     18636     18639     18642     18644
     18636     18639     18642     18645     18637     18636     18639     18640
     18637     18636     18639     18641     18637     18636     18639     18642
     18638     18636     18639     18640     18638     18636     18639     18641
     18638     18636     18639     18642     18639     18642     18645     18646
     18639     18642     18645     18647     18639     18642     18645     18648
     18640     18639     18642     18643     18640     18639     18642     18644
     18640     18639     18642     18645     18641     18639     18642     18643
     18641     18639     18642     18644     18641     18639     18642     18645
     18642     18645     18648     18649     18642     18645     18648     18650
     18642     18645     18648     18651     18643     18642     18645     18646
     18643     18642     18645     18647     18643     18642     18645     18648
     18644     18642     18645     18646     18644     18642     18645     18647
     18644     18642     18645     18648     18645     18648     18651     18652
     18645     18648     18651     18653     18645     18648     18651     18654
     18646     18645     18648     18649     18646     18645     18648     18650
     18646     18645     18648     18651     18647     18645     18648     18649
     18647     18645     18648     18650     18647     18645     18648     18651
     18648     18651     18654     18655     18648     18651     18654     18656
     18648     18651     18654     18657     18649     18648     18651     18652
     18649     18648     18651     18653     18649     18648     18651     18654
     18650     18648     18651     18652     18650     18648     18651     18653
     18650     18648     18651     18654     18651     18654     18657     18658
     18651     18654     18657     18659     18651     18654     18657     18660
     18652     18651     18654     18655     18652     18651     18654     18656
     18652     18651     18654     18657     18653     18651     18654     18655
     18653     18651     18654     18656     18653     18651     18654     18657
     18654     18657     18660     18661     18654     18657     18660     18662
     18654     18657     18660     18663     18655     18654     18657     18658
     18655     18654     18657     18659     18655     18654     18657     18660
     18656     18654     18657     18658     18656     18654     18657     18659
     18656     18654     18657     18660     18657     18660     18663     18664
     18657     18660     18663     18665     18657     18660     18663     18666
     18658     18657     18660     18661     18658     18657     18660     18662
     18658     18657     18660     18663     18659     18657     18660     18661
     18659     18657     18660     18662     18659     18657     18660     18663
     18660     18663     18666     18667     18660     18663     18666     18668
     18660     18663     18666     18669     18661     18660     18663     18664
     18661     18660     18663     18665     18661     18660     18663     18666
     18662     18660     18663     18664     18662     18660     18663     18665
     18662     18660     18663     18666     18663     18666     18669     18670
     18663     18666     18669     18671     18663     18666     18669     18672
     18664     18663     18666     18667     18664     18663     18666     18668
     18664     18663     18666     18669     18665     18663     18666     18667
     18665     18663     18666     18668     18665     18663     18666     18669
     18666     18669     18672     18673     18666     18669     18672     18674
     18666     18669     18672     18675     18667     18666     18669     18670
     18667     18666     18669     18671     18667     18666     18669     18672
     18668     18666     18669     18670     18668     18666     18669     18671
     18668     18666     18669     18672     18669     18672     18675     18676
     18669     18672     18675     18677     18669     18672     18675     18678
     18670     18669     18672     18673     18670     18669     18672     18674
     18670     18669     18672     18675     18671     18669     18672     18673
     18671     18669     18672     18674     18671     18669     18672     18675
     18672     18675     18678     18679     18672     18675     18678     18680
     18672     18675     18678     18681     18673     18672     18675     18676
     18673     18672     18675     18677     18673     18672     18675     18678
     18674     18672     18675     18676     18674     18672     18675     18677
     18674     18672     18675     18678     18675     18678     18681     18682
     18675     18678     18681     18683     18675     18678     18681     18684
     18676     18675     18678     18679     18676     18675     18678     18680
     18676     18675     18678     18681     18677     18675     18678     18679
     18677     18675     18678     18680     18677     18675     18678     18681
     18678     18681     18684     18685     18678     18681     18684     18686
     18678     18681     18684     18687     18679     18678     18681     18682
     18679     18678     18681     18683     18679     18678     18681     18684
     18680     18678     18681     18682     18680     18678     18681     18683
     18680     18678     18681     18684     18681     18684     18687     18688
     18681     18684     18687     18689     18681     18684     18687     18690
     18682     18681     18684     18685     18682     18681     18684     18686
     18682     18681     18684     18687     18683     18681     18684     18685
     18683     18681     18684     18686     18683     18681     18684     18687
     18684     18687     18690     18691     18684     18687     18690     18692
     18684     18687     18690     18693     18685     18684     18687     18688
     18685     18684     18687     18689     18685     18684     18687     18690
     18686     18684     18687     18688     18686     18684     18687     18689
     18686     18684     18687     18690     18687     18690     18693     18694
     18687     18690     18693     18695     18687     18690     18693     18696
     18688     18687     18690     18691     18688     18687     18690     18692
     18688     18687     18690     18693     18689     18687     18690     18691
     18689     18687     18690     18692     18689     18687     18690     18693
     18691     18690     18693     18694     18691     18690     18693     18695
     18691     18690     18693     18696     18692     18690     18693     18694
     18692     18690     18693     18695     18692     18690     18693     18696
     18697     18698     18713     18714     18697     18698     18713     18715
     18697     18698     18713     18719     18698     18697     18701     18702
     18698     18697     18701     18703     18698     18697     18701     18704
     18698     18697     18705     18706     18698     18697     18705     18707
     18698     18697     18705     18708     18698     18697     18709     18710
     18698     18697     18709     18711     18698     18697     18709     18712
     18698     18713     18719     18716     18699     18698     18697     18701
     18699     18698     18697     18705     18699     18698     18697     18709
     18699     18698     18713     18714     18699     18698     18713     18715
     18699     18698     18713     18719     18700     18698     18697     18701
     18700     18698     18697     18705     18700     18698     18697     18709
     18700     18698     18713     18714     18700     18698     18713     18715
     18700     18698     18713     18719     18701     18697     18698     18713
     18701     18697     18705     18706     18701     18697     18705     18707
     18701     18697     18705     18708     18701     18697     18709     18710
     18701     18697     18709     18711     18701     18697     18709     18712
     18702     18701     18697     18705     18702     18701     18697     18709
     18703     18701     18697     18705     18703     18701     18697     18709
     18704     18701     18697     18705     18704     18701     18697     18709
     18705     18697     18698     18713     18705     18697     18709     18710
     18705     18697     18709     18711     18705     18697     18709     18712
     18706     18705     18697     18709     18707     18705     18697     18709
     18708     18705     18697     18709     18709     18697     18698     18713
     18713     18719     18716     18717     18713     18719     18716     18718
     18713     18719     18716     18720     18714     18713     18719     18716
     18715     18713     18719     18716     18716     18720     18721     18722
     18716     18720     18721     18723     18716     18720     18721     18724
     18717     18716     18720     18721     18718     18716     18720     18721
     18719     18716     18720     18721     18720     18721     18724     18725
     18720     18721     18724     18726     18720     18721     18724     18732
     18721     18724     18726     18727     18721     18724     18732     18733
     18721     18724     18732     18734     18721     18724     18732     18735
     18722     18721     18724     18725     18722     18721     18724     18726
     18722     18721     18724     18732     18723     18721     18724     18725
     18723     18721     18724     18726     18723     18721     18724     18732
     18724     18726     18727     18728     18724     18726     18727     18729
     18724     18732     18735     18736     18725     18724     18726     18727
     18725     18724     18732     18733     18725     18724     18732     18734
     18725     18724     18732     18735     18726     18724     18732     18733
     18726     18724     18732     18734     18726     18724     18732     18735
     18726     18727     18729     18730     18726     18727     18729     18731
     18726     18727     18729     18741     18727     18726     18724     18732
     18727     18729     18741     18742     18727     18729     18741     18743
     18727     18729     18741     18744     18728     18727     18729     18730
     18728     18727     18729     18731     18728     18727     18729     18741
     18729     18741     18744     18745     18729     18741     18744     18746
     18729     18741     18744     18747     18730     18729     18741     18742
     18730     18729     18741     18743     18730     18729     18741     18744
     18731     18729     18741     18742     18731     18729     18741     18743
     18731     18729     18741     18744     18732     18735     18736     18737
     18732     18735     18736     18738     18733     18732     18735     18736
     18734     18732     18735     18736     18735     18736     18738     18739
     18735     18736     18738     18740     18735     18736     18738     18788
     18736     18738     18788     18789     18736     18738     18788     18790
     18736     18738     18788     18791     18737     18736     18738     18739
     18737     18736     18738     18740     18737     18736     18738     18788
     18738     18788     18791     18792     18738     18788     18791     18793
     18738     18788     18791     18794     18739     18738     18788     18789
     18739     18738     18788     18790     18739     18738     18788     18791
     18740     18738     18788     18789     18740     18738     18788     18790
     18740     18738     18788     18791     18741     18744     18747     18748
     18741     18744     18747     18749     18741     18744     18747     18750
     18742     18741     18744     18745     18742     18741     18744     18746
     18742     18741     18744     18747     18743     18741     18744     18745
     18743     18741     18744     18746     18743     18741     18744     18747
     18744     18747     18750     18751     18744     18747     18750     18752
     18744     18747     18750     18753     18745     18744     18747     18748
     18745     18744     18747     18749     18745     18744     18747     18750
     18746     18744     18747     18748     18746     18744     18747     18749
     18746     18744     18747     18750     18747     18750     18753     18754
     18747     18750     18753     18755     18747     18750     18753     18756
     18748     18747     18750     18751     18748     18747     18750     18752
     18748     18747     18750     18753     18749     18747     18750     18751
     18749     18747     18750     18752     18749     18747     18750     18753
     18750     18753     18756     18757     18750     18753     18756     18758
     18750     18753     18756     18759     18751     18750     18753     18754
     18751     18750     18753     18755     18751     18750     18753     18756
     18752     18750     18753     18754     18752     18750     18753     18755
     18752     18750     18753     18756     18753     18756     18759     18760
     18753     18756     18759     18761     18754     18753     18756     18757
     18754     18753     18756     18758     18754     18753     18756     18759
     18755     18753     18756     18757     18755     18753     18756     18758
     18755     18753     18756     18759     18756     18759     18761     18762
     18756     18759     18761     18763     18757     18756     18759     18760
     18757     18756     18759     18761     18758     18756     18759     18760
     18758     18756     18759     18761     18759     18761     18763     18764
     18759     18761     18763     18765     18759     18761     18763     18766
     18760     18759     18761     18762     18760     18759     18761     18763
     18761     18763     18766     18767     18761     18763     18766     18768
     18761     18763     18766     18769     18762     18761     18763     18764
     18762     18761     18763     18765     18762     18761     18763     18766
     18763     18766     18769     18770     18763     18766     18769     18771
     18763     18766     18769     18772     18764     18763     18766     18767
     18764     18763     18766     18768     18764     18763     18766     18769
     18765     18763     18766     18767     18765     18763     18766     18768
     18765     18763     18766     18769     18766     18769     18772     18773
     18766     18769     18772     18774     18766     18769     18772     18775
     18767     18766     18769     18770     18767     18766     18769     18771
     18767     18766     18769     18772     18768     18766     18769     18770
     18768     18766     18769     18771     18768     18766     18769     18772
     18769     18772     18775     18776     18769     18772     18775     18777
     18769     18772     18775     18778     18770     18769     18772     18773
     18770     18769     18772     18774     18770     18769     18772     18775
     18771     18769     18772     18773     18771     18769     18772     18774
     18771     18769     18772     18775     18772     18775     18778     18779
     18772     18775     18778     18780     18772     18775     18778     18781
     18773     18772     18775     18776     18773     18772     18775     18777
     18773     18772     18775     18778     18774     18772     18775     18776
     18774     18772     18775     18777     18774     18772     18775     18778
     18775     18778     18781     18782     18775     18778     18781     18783
     18775     18778     18781     18784     18776     18775     18778     18779
     18776     18775     18778     18780     18776     18775     18778     18781
     18777     18775     18778     18779     18777     18775     18778     18780
     18777     18775     18778     18781     18778     18781     18784     18785
     18778     18781     18784     18786     18778     18781     18784     18787
     18779     18778     18781     18782     18779     18778     18781     18783
     18779     18778     18781     18784     18780     18778     18781     18782
     18780     18778     18781     18783     18780     18778     18781     18784
     18782     18781     18784     18785     18782     18781     18784     18786
     18782     18781     18784     18787     18783     18781     18784     18785
     18783     18781     18784     18786     18783     18781     18784     18787
     18788     18791     18794     18795     18788     18791     18794     18796
     18788     18791     18794     18797     18789     18788     18791     18792
     18789     18788     18791     18793     18789     18788     18791     18794
     18790     18788     18791     18792     18790     18788     18791     18793
     18790     18788     18791     18794     18791     18794     18797     18798
     18791     18794     18797     18799     18791     18794     18797     18800
     18792     18791     18794     18795     18792     18791     18794     18796
     18792     18791     18794     18797     18793     18791     18794     18795
     18793     18791     18794     18796     18793     18791     18794     18797
     18794     18797     18800     18801     18794     18797     18800     18802
     18794     18797     18800     18803     18795     18794     18797     18798
     18795     18794     18797     18799     18795     18794     18797     18800
     18796     18794     18797     18798     18796     18794     18797     18799
     18796     18794     18797     18800     18797     18800     18803     18804
     18797     18800     18803     18805     18797     18800     18803     18806
     18798     18797     18800     18801     18798     18797     18800     18802
     18798     18797     18800     18803     18799     18797     18800     18801
     18799     18797     18800     18802     18799     18797     18800     18803
     18800     18803     18806     18807     18800     18803     18806     18808
     18801     18800     18803     18804     18801     18800     18803     18805
     18801     18800     18803     18806     18802     18800     18803     18804
     18802     18800     18803     18805     18802     18800     18803     18806
     18803     18806     18808     18809     18803     18806     18808     18810
     18804     18803     18806     18807     18804     18803     18806     18808
     18805     18803     18806     18807     18805     18803     18806     18808
     18806     18808     18810     18811     18806     18808     18810     18812
     18806     18808     18810     18813     18807     18806     18808     18809
     18807     18806     18808     18810     18808     18810     18813     18814
     18808     18810     18813     18815     18808     18810     18813     18816
     18809     18808     18810     18811     18809     18808     18810     18812
     18809     18808     18810     18813     18810     18813     18816     18817
     18810     18813     18816     18818     18810     18813     18816     18819
     18811     18810     18813     18814     18811     18810     18813     18815
     18811     18810     18813     18816     18812     18810     18813     18814
     18812     18810     18813     18815     18812     18810     18813     18816
     18813     18816     18819     18820     18813     18816     18819     18821
     18813     18816     18819     18822     18814     18813     18816     18817
     18814     18813     18816     18818     18814     18813     18816     18819
     18815     18813     18816     18817     18815     18813     18816     18818
     18815     18813     18816     18819     18816     18819     18822     18823
     18816     18819     18822     18824     18816     18819     18822     18825
     18817     18816     18819     18820     18817     18816     18819     18821
     18817     18816     18819     18822     18818     18816     18819     18820
     18818     18816     18819     18821     18818     18816     18819     18822
     18819     18822     18825     18826     18819     18822     18825     18827
     18819     18822     18825     18828     18820     18819     18822     18823
     18820     18819     18822     18824     18820     18819     18822     18825
     18821     18819     18822     18823     18821     18819     18822     18824
     18821     18819     18822     18825     18822     18825     18828     18829
     18822     18825     18828     18830     18822     18825     18828     18831
     18823     18822     18825     18826     18823     18822     18825     18827
     18823     18822     18825     18828     18824     18822     18825     18826
     18824     18822     18825     18827     18824     18822     18825     18828
     18825     18828     18831     18832     18825     18828     18831     18833
     18825     18828     18831     18834     18826     18825     18828     18829
     18826     18825     18828     18830     18826     18825     18828     18831
     18827     18825     18828     18829     18827     18825     18828     18830
     18827     18825     18828     18831     18829     18828     18831     18832
     18829     18828     18831     18833     18829     18828     18831     18834
     18830     18828     18831     18832     18830     18828     18831     18833
     18830     18828     18831     18834     18835     18839     18842     18843
     18835     18839     18842     18844     18835     18839     18842     18849
     18836     18835     18839     18840     18836     18835     18839     18841
     18836     18835     18839     18842     18837     18835     18839     18840
     18837     18835     18839     18841     18837     18835     18839     18842
     18838     18835     18839     18840     18838     18835     18839     18841
     18838     18835     18839     18842     18839     18842     18849     18845
     18840     18839     18842     18843     18840     18839     18842     18844
     18840     18839     18842     18849     18841     18839     18842     18843
     18841     18839     18842     18844     18841     18839     18842     18849
     18842     18849     18845     18846     18842     18849     18845     18847
     18842     18849     18845     18848     18843     18842     18849     18845
     18844     18842     18849     18845     18845     18848     18850     18851
     18845     18848     18850     18852     18845     18848     18850     18853
     18846     18845     18848     18850     18847     18845     18848     18850
     18848     18850     18853     18854     18848     18850     18853     18855
     18848     18850     18853     18861     18849     18845     18848     18850
     18850     18853     18855     18856     18850     18853     18861     18862
     18850     18853     18861     18863     18850     18853     18861     18864
     18851     18850     18853     18854     18851     18850     18853     18855
     18851     18850     18853     18861     18852     18850     18853     18854
     18852     18850     18853     18855     18852     18850     18853     18861
     18853     18855     18856     18857     18853     18855     18856     18858
     18853     18861     18864     18865     18854     18853     18855     18856
     18854     18853     18861     18862     18854     18853     18861     18863
     18854     18853     18861     18864     18855     18853     18861     18862
     18855     18853     18861     18863     18855     18853     18861     18864
     18855     18856     18858     18859     18855     18856     18858     18860
     18855     18856     18858     18870     18856     18855     18853     18861
     18856     18858     18870     18871     18856     18858     18870     18872
     18856     18858     18870     18873     18857     18856     18858     18859
     18857     18856     18858     18860     18857     18856     18858     18870
     18858     18870     18873     18874     18858     18870     18873     18875
     18858     18870     18873     18876     18859     18858     18870     18871
     18859     18858     18870     18872     18859     18858     18870     18873
     18860     18858     18870     18871     18860     18858     18870     18872
     18860     18858     18870     18873     18861     18864     18865     18866
     18861     18864     18865     18867     18862     18861     18864     18865
     18863     18861     18864     18865     18864     18865     18867     18868
     18864     18865     18867     18869     18864     18865     18867     18917
     18865     18867     18917     18918     18865     18867     18917     18919
     18865     18867     18917     18920     18866     18865     18867     18868
     18866     18865     18867     18869     18866     18865     18867     18917
     18867     18917     18920     18921     18867     18917     18920     18922
     18867     18917     18920     18923     18868     18867     18917     18918
     18868     18867     18917     18919     18868     18867     18917     18920
     18869     18867     18917     18918     18869     18867     18917     18919
     18869     18867     18917     18920     18870     18873     18876     18877
     18870     18873     18876     18878     18870     18873     18876     18879
     18871     18870     18873     18874     18871     18870     18873     18875
     18871     18870     18873     18876     18872     18870     18873     18874
     18872     18870     18873     18875     18872     18870     18873     18876
     18873     18876     18879     18880     18873     18876     18879     18881
     18873     18876     18879     18882     18874     18873     18876     18877
     18874     18873     18876     18878     18874     18873     18876     18879
     18875     18873     18876     18877     18875     18873     18876     18878
     18875     18873     18876     18879     18876     18879     18882     18883
     18876     18879     18882     18884     18876     18879     18882     18885
     18877     18876     18879     18880     18877     18876     18879     18881
     18877     18876     18879     18882     18878     18876     18879     18880
     18878     18876     18879     18881     18878     18876     18879     18882
     18879     18882     18885     18886     18879     18882     18885     18887
     18879     18882     18885     18888     18880     18879     18882     18883
     18880     18879     18882     18884     18880     18879     18882     18885
     18881     18879     18882     18883     18881     18879     18882     18884
     18881     18879     18882     18885     18882     18885     18888     18889
     18882     18885     18888     18890     18883     18882     18885     18886
     18883     18882     18885     18887     18883     18882     18885     18888
     18884     18882     18885     18886     18884     18882     18885     18887
     18884     18882     18885     18888     18885     18888     18890     18891
     18885     18888     18890     18892     18886     18885     18888     18889
     18886     18885     18888     18890     18887     18885     18888     18889
     18887     18885     18888     18890     18888     18890     18892     18893
     18888     18890     18892     18894     18888     18890     18892     18895
     18889     18888     18890     18891     18889     18888     18890     18892
     18890     18892     18895     18896     18890     18892     18895     18897
     18890     18892     18895     18898     18891     18890     18892     18893
     18891     18890     18892     18894     18891     18890     18892     18895
     18892     18895     18898     18899     18892     18895     18898     18900
     18892     18895     18898     18901     18893     18892     18895     18896
     18893     18892     18895     18897     18893     18892     18895     18898
     18894     18892     18895     18896     18894     18892     18895     18897
     18894     18892     18895     18898     18895     18898     18901     18902
     18895     18898     18901     18903     18895     18898     18901     18904
     18896     18895     18898     18899     18896     18895     18898     18900
     18896     18895     18898     18901     18897     18895     18898     18899
     18897     18895     18898     18900     18897     18895     18898     18901
     18898     18901     18904     18905     18898     18901     18904     18906
     18898     18901     18904     18907     18899     18898     18901     18902
     18899     18898     18901     18903     18899     18898     18901     18904
     18900     18898     18901     18902     18900     18898     18901     18903
     18900     18898     18901     18904     18901     18904     18907     18908
     18901     18904     18907     18909     18901     18904     18907     18910
     18902     18901     18904     18905     18902     18901     18904     18906
     18902     18901     18904     18907     18903     18901     18904     18905
     18903     18901     18904     18906     18903     18901     18904     18907
     18904     18907     18910     18911     18904     18907     18910     18912
     18904     18907     18910     18913     18905     18904     18907     18908
     18905     18904     18907     18909     18905     18904     18907     18910
     18906     18904     18907     18908     18906     18904     18907     18909
     18906     18904     18907     18910     18907     18910     18913     18914
     18907     18910     18913     18915     18907     18910     18913     18916
     18908     18907     18910     18911     18908     18907     18910     18912
     18908     18907     18910     18913     18909     18907     18910     18911
     18909     18907     18910     18912     18909     18907     18910     18913
     18911     18910     18913     18914     18911     18910     18913     18915
     18911     18910     18913     18916     18912     18910     18913     18914
     18912     18910     18913     18915     18912     18910     18913     18916
     18917     18920     18923     18924     18917     18920     18923     18925
     18917     18920     18923     18926     18918     18917     18920     18921
     18918     18917     18920     18922     18918     18917     18920     18923
     18919     18917     18920     18921     18919     18917     18920     18922
     18919     18917     18920     18923     18920     18923     18926     18927
     18920     18923     18926     18928     18920     18923     18926     18929
     18921     18920     18923     18924     18921     18920     18923     18925
     18921     18920     18923     18926     18922     18920     18923     18924
     18922     18920     18923     18925     18922     18920     18923     18926
     18923     18926     18929     18930     18923     18926     18929     18931
     18923     18926     18929     18932     18924     18923     18926     18927
     18924     18923     18926     18928     18924     18923     18926     18929
     18925     18923     18926     18927     18925     18923     18926     18928
     18925     18923     18926     18929     18926     18929     18932     18933
     18926     18929     18932     18934     18926     18929     18932     18935
     18927     18926     18929     18930     18927     18926     18929     18931
     18927     18926     18929     18932     18928     18926     18929     18930
     18928     18926     18929     18931     18928     18926     18929     18932
     18929     18932     18935     18936     18929     18932     18935     18937
     18930     18929     18932     18933     18930     18929     18932     18934
     18930     18929     18932     18935     18931     18929     18932     18933
     18931     18929     18932     18934     18931     18929     18932     18935
     18932     18935     18937     18938     18932     18935     18937     18939
     18933     18932     18935     18936     18933     18932     18935     18937
     18934     18932     18935     18936     18934     18932     18935     18937
     18935     18937     18939     18940     18935     18937     18939     18941
     18935     18937     18939     18942     18936     18935     18937     18938
     18936     18935     18937     18939     18937     18939     18942     18943
     18937     18939     18942     18944     18937     18939     18942     18945
     18938     18937     18939     18940     18938     18937     18939     18941
     18938     18937     18939     18942     18939     18942     18945     18946
     18939     18942     18945     18947     18939     18942     18945     18948
     18940     18939     18942     18943     18940     18939     18942     18944
     18940     18939     18942     18945     18941     18939     18942     18943
     18941     18939     18942     18944     18941     18939     18942     18945
     18942     18945     18948     18949     18942     18945     18948     18950
     18942     18945     18948     18951     18943     18942     18945     18946
     18943     18942     18945     18947     18943     18942     18945     18948
     18944     18942     18945     18946     18944     18942     18945     18947
     18944     18942     18945     18948     18945     18948     18951     18952
     18945     18948     18951     18953     18945     18948     18951     18954
     18946     18945     18948     18949     18946     18945     18948     18950
     18946     18945     18948     18951     18947     18945     18948     18949
     18947     18945     18948     18950     18947     18945     18948     18951
     18948     18951     18954     18955     18948     18951     18954     18956
     18948     18951     18954     18957     18949     18948     18951     18952
     18949     18948     18951     18953     18949     18948     18951     18954
     18950     18948     18951     18952     18950     18948     18951     18953
     18950     18948     18951     18954     18951     18954     18957     18958
     18951     18954     18957     18959     18951     18954     18957     18960
     18952     18951     18954     18955     18952     18951     18954     18956
     18952     18951     18954     18957     18953     18951     18954     18955
     18953     18951     18954     18956     18953     18951     18954     18957
     18954     18957     18960     18961     18954     18957     18960     18962
     18954     18957     18960     18963     18955     18954     18957     18958
     18955     18954     18957     18959     18955     18954     18957     18960
     18956     18954     18957     18958     18956     18954     18957     18959
     18956     18954     18957     18960     18958     18957     18960     18961
     18958     18957     18960     18962     18958     18957     18960     18963
     18959     18957     18960     18961     18959     18957     18960     18962
     18959     18957     18960     18963     18964     18968     18971     18972
     18964     18968     18971     19002     18964     19010     19007     19002
     18964     19010     19007     19008     18964     19010     19007     19009
     18965     18964     18966     18967     18965     18964     18968     18969
     18965     18964     18968     18970     18965     18964     18968     18971
     18965     18964     19010     19007     18965     18964     19010     19011
     18965     18964     19010     19012     18966     18964     18968     18969
     18966     18964     18968     18970     18966     18964     18968     18971
     18966     18964     19010     19007     18966     18964     19010     19011
     18966     18964     19010     19012     18967     18966     18964     18968
     18967     18966     18964     19010     18968     18964     19010     19007
     18968     18964     19010     19011     18968     18964     19010     19012
     18968     18971     18972     18973     18968     18971     18972     18974
     18968     18971     19002     19000     18968     18971     19002     19003
     18968     18971     19002     19007     18969     18968     18964     19010
     18969     18968     18971     18972     18969     18968     18971     19002
     18970     18968     18964     19010     18970     18968     18971     18972
     18970     18968     18971     19002     18971     18968     18964     19010
     18971     18972     18974     18975     18971     18972     18974     18976
     18971     18972     18974     18977     18971     19002     19000     18977
     18971     19002     19000     18997     18971     19002     19000     19001
     18971     19002     19003     19004     18971     19002     19003     19005
     18971     19002     19003     19006     18971     19002     19007     19008
     18971     19002     19007     19009     18971     19002     19007     19010
     18972     18971     19002     19000     18972     18971     19002     19003
     18972     18971     19002     19007     18972     18974     18977     18978
     18972     18974     18977     18979     18972     18974     18977     19000
     18973     18972     18971     19002     18973     18972     18974     18975
     18973     18972     18974     18976     18973     18972     18974     18977
     18974     18972     18971     19002     18974     18977     18979     18980
     18974     18977     18979     18981     18974     18977     18979     18989
     18974     18977     19000     18997     18974     18977     19000     19001
     18974     18977     19000     19002     18975     18974     18977     18978
     18975     18974     18977     18979     18975     18974     18977     19000
     18976     18974     18977     18978     18976     18974     18977     18979
     18976     18974     18977     19000     18977     18979     18981     18982
     18977     18979     18981     18983     18977     18979     18981     18984
     18977     18979     18989     18987     18977     18979     18989     18990
     18977     18979     18989     18994     18977     19000     18997     18994
     18977     19000     18997     18998     18977     19000     18997     18999
     18977     19000     19002     19003     18977     19000     19002     19007
     18978     18977     18979     18980     18978     18977     18979     18981
     18978     18977     18979     18989     18978     18977     19000     18997
     18978     18977     19000     19001     18978     18977     19000     19002
     18979     18977     19000     18997     18979     18977     19000     19001
     18979     18977     19000     19002     18979     18981     18984     18985
     18979     18981     18984     18986     18979     18981     18984     18987
     18979     18989     18987     18984     18979     18989     18987     18988
     18979     18989     18987     19013     18979     18989     18990     18991
     18979     18989     18990     18992     18979     18989     18990     18993
     18979     18989     18994     18995     18979     18989     18994     18996
     18979     18989     18994     18997     18980     18979     18977     19000
     18980     18979     18981     18982     18980     18979     18981     18983
     18980     18979     18981     18984     18980     18979     18989     18987
     18980     18979     18989     18990     18980     18979     18989     18994
     18981     18979     18977     19000     18981     18979     18989     18987
     18981     18979     18989     18990     18981     18979     18989     18994
     18981     18984     18987     18988     18981     18984     18987     18989
     18981     18984     18987     19013     18982     18981     18979     18989
     18982     18981     18984     18985     18982     18981     18984     18986
     18982     18981     18984     18987     18983     18981     18979     18989
     18983     18981     18984     18985     18983     18981     18984     18986
     18983     18981     18984     18987     18984     18981     18979     18989
     18984     18987     18989     18990     18984     18987     18989     18994
     18984     18987     19013     19014     18984     18987     19013     19015
     18984     18987     19013     19019     18985     18984     18987     18988
     18985     18984     18987     18989     18985     18984     18987     19013
     18986     18984     18987     18988     18986     18984     18987     18989
     18986     18984     18987     19013     18987     18989     18990     18991
     18987     18989     18990     18992     18987     18989     18990     18993
     18987     18989     18994     18995     18987     18989     18994     18996
     18987     18989     18994     18997     18987     19013     19015     19016
     18987     19013     19015     19017     18987     19013     19015     19018
     18987     19013     19019     19020     18987     19013     19019     19021
     18987     19013     19019     19022     18988     18987     18989     18990
     18988     18987     18989     18994     18988     18987     19013     19014
     18988     18987     19013     19015     18988     18987     19013     19019
     18989     18979     18977     19000     18989     18987     19013     19014
     18989     18987     19013     19015     18989     18987     19013     19019
     18989     18994     18997     18998     18989     18994     18997     18999
     18989     18994     18997     19000     18990     18989     18987     19013
     18990     18989     18994     18995     18990     18989     18994     18996
     18990     18989     18994     18997     18991     18990     18989     18994
     18992     18990     18989     18994     18993     18990     18989     18994
     18994     18989     18987     19013     18994     18997     19000     19001
     18994     18997     19000     19002     18995     18994     18997     18998
     18995     18994     18997     18999     18995     18994     18997     19000
     18996     18994     18997     18998     18996     18994     18997     18999
     18996     18994     18997     19000     18997     19000     19002     19003
     18997     19000     19002     19007     18998     18997     19000     19001
     18998     18997     19000     19002     18999     18997     19000     19001
     18999     18997     19000     19002     19000     19002     19003     19004
     19000     19002     19003     19005     19000     19002     19003     19006
     19000     19002     19007     19008     19000     19002     19007     19009
     19000     19002     19007     19010     19001     19000     19002     19003
     19001     19000     19002     19007     19002     19007     19010     19011
     19002     19007     19010     19012     19003     19002     19007     19008
     19003     19002     19007     19009     19003     19002     19007     19010
     19004     19003     19002     19007     19005     19003     19002     19007
     19006     19003     19002     19007     19008     19007     19010     19011
     19008     19007     19010     19012     19009     19007     19010     19011
     19009     19007     19010     19012     19013     19019     19022     19023
     19013     19019     19022     19024     19013     19019     19022     19025
     19014     19013     19015     19016     19014     19013     19015     19017
     19014     19013     19015     19018     19014     19013     19019     19020
     19014     19013     19019     19021     19014     19013     19019     19022
     19015     19013     19019     19020     19015     19013     19019     19021
     19015     19013     19019     19022     19016     19015     19013     19019
     19017     19015     19013     19019     19018     19015     19013     19019
     19019     19022     19025     19026     19019     19022     19025     19027
     19019     19022     19025     19028     19020     19019     19022     19023
     19020     19019     19022     19024     19020     19019     19022     19025
     19021     19019     19022     19023     19021     19019     19022     19024
     19021     19019     19022     19025     19022     19025     19028     19029
     19022     19025     19028     19030     19022     19025     19028     19034
     19023     19022     19025     19026     19023     19022     19025     19027
     19023     19022     19025     19028     19024     19022     19025     19026
     19024     19022     19025     19027     19024     19022     19025     19028
     19025     19028     19030     19031     19025     19028     19030     19032
     19025     19028     19030     19033     19025     19028     19034     19035
     19025     19028     19034     19036     19025     19028     19034     19037
     19026     19025     19028     19029     19026     19025     19028     19030
     19026     19025     19028     19034     19027     19025     19028     19029
     19027     19025     19028     19030     19027     19025     19028     19034
     19029     19028     19030     19031     19029     19028     19030     19032
     19029     19028     19030     19033     19029     19028     19034     19035
     19029     19028     19034     19036     19029     19028     19034     19037
     19030     19028     19034     19035     19030     19028     19034     19036
     19030     19028     19034     19037     19031     19030     19028     19034
     19032     19030     19028     19034     19033     19030     19028     19034
     19038     19051     19054     19055     19038     19051     19054     19056
     19038     19051     19054     19061     19039     19038     19043     19044
     19039     19038     19043     19045     19039     19038     19043     19046
     19039     19038     19047     19048     19039     19038     19047     19049
     19039     19038     19047     19050     19039     19038     19051     19052
     19039     19038     19051     19053     19039     19038     19051     19054
     19040     19039     19038     19043     19040     19039     19038     19047
     19040     19039     19038     19051     19041     19039     19038     19043
     19041     19039     19038     19047     19041     19039     19038     19051
     19042     19039     19038     19043     19042     19039     19038     19047
     19042     19039     19038     19051     19043     19038     19047     19048
     19043     19038     19047     19049     19043     19038     19047     19050
     19043     19038     19051     19052     19043     19038     19051     19053
     19043     19038     19051     19054     19044     19043     19038     19047
     19044     19043     19038     19051     19045     19043     19038     19047
     19045     19043     19038     19051     19046     19043     19038     19047
     19046     19043     19038     19051     19047     19038     19051     19052
     19047     19038     19051     19053     19047     19038     19051     19054
     19048     19047     19038     19051     19049     19047     19038     19051
     19050     19047     19038     19051     19051     19054     19061     19057
     19052     19051     19054     19055     19052     19051     19054     19056
     19052     19051     19054     19061     19053     19051     19054     19055
     19053     19051     19054     19056     19053     19051     19054     19061
     19054     19061     19057     19058     19054     19061     19057     19059
     19054     19061     19057     19060     19055     19054     19061     19057
     19056     19054     19061     19057     19057     19060     19062     19063
     19057     19060     19062     19064     19057     19060     19062     19067
     19058     19057     19060     19062     19059     19057     19060     19062
     19060     19062     19067     19065     19060     19062     19067     19068
     19060     19062     19067     19069     19061     19057     19060     19062
     19062     19067     19065     19066     19062     19067     19065     19117
     19062     19067     19069     19070     19062     19067     19069     19071
     19062     19067     19069     19073     19063     19062     19067     19065
     19063     19062     19067     19068     19063     19062     19067     19069
     19064     19062     19067     19065     19064     19062     19067     19068
     19064     19062     19067     19069     19065     19067     19069     19070
     19065     19067     19069     19071     19065     19067     19069     19073
     19065     19117     19119     19120     19065     19117     19119     19121
     19065     19117     19119     19122     19066     19065     19067     19068
     19066     19065     19067     19069     19066     19065     19117     19118
     19066     19065     19117     19119     19067     19065     19117     19118
     19067     19065     19117     19119     19067     19069     19071     19072
     19067     19069     19073     19074     19067     19069     19073     19075
     19068     19067     19065     19117     19068     19067     19069     19070
     19068     19067     19069     19071     19068     19067     19069     19073
     19069     19067     19065     19117     19069     19073     19075     19076
     19069     19073     19075     19077     19070     19069     19071     19072
     19070     19069     19073     19074     19070     19069     19073     19075
     19071     19069     19073     19074     19071     19069     19073     19075
     19072     19071     19069     19073     19073     19075     19077     19078
     19073     19075     19077     19079     19073     19075     19077     19080
     19074     19073     19075     19076     19074     19073     19075     19077
     19075     19077     19080     19081     19075     19077     19080     19082
     19075     19077     19080     19083     19076     19075     19077     19078
     19076     19075     19077     19079     19076     19075     19077     19080
     19077     19080     19083     19084     19077     19080     19083     19085
     19077     19080     19083     19086     19078     19077     19080     19081
     19078     19077     19080     19082     19078     19077     19080     19083
     19079     19077     19080     19081     19079     19077     19080     19082
     19079     19077     19080     19083     19080     19083     19086     19087
     19080     19083     19086     19088     19080     19083     19086     19089
     19081     19080     19083     19084     19081     19080     19083     19085
     19081     19080     19083     19086     19082     19080     19083     19084
     19082     19080     19083     19085     19082     19080     19083     19086
     19083     19086     19089     19090     19083     19086     19089     19091
     19083     19086     19089     19092     19084     19083     19086     19087
     19084     19083     19086     19088     19084     19083     19086     19089
     19085     19083     19086     19087     19085     19083     19086     19088
     19085     19083     19086     19089     19086     19089     19092     19093
     19086     19089     19092     19094     19086     19089     19092     19095
     19087     19086     19089     19090     19087     19086     19089     19091
     19087     19086     19089     19092     19088     19086     19089     19090
     19088     19086     19089     19091     19088     19086     19089     19092
     19089     19092     19095     19096     19089     19092     19095     19097
     19089     19092     19095     19098     19090     19089     19092     19093
     19090     19089     19092     19094     19090     19089     19092     19095
     19091     19089     19092     19093     19091     19089     19092     19094
     19091     19089     19092     19095     19092     19095     19098     19099
     19092     19095     19098     19100     19092     19095     19098     19101
     19093     19092     19095     19096     19093     19092     19095     19097
     19093     19092     19095     19098     19094     19092     19095     19096
     19094     19092     19095     19097     19094     19092     19095     19098
     19095     19098     19101     19102     19095     19098     19101     19103
     19095     19098     19101     19104     19096     19095     19098     19099
     19096     19095     19098     19100     19096     19095     19098     19101
     19097     19095     19098     19099     19097     19095     19098     19100
     19097     19095     19098     19101     19098     19101     19104     19105
     19098     19101     19104     19106     19098     19101     19104     19107
     19099     19098     19101     19102     19099     19098     19101     19103
     19099     19098     19101     19104     19100     19098     19101     19102
     19100     19098     19101     19103     19100     19098     19101     19104
     19101     19104     19107     19108     19101     19104     19107     19109
     19101     19104     19107     19110     19102     19101     19104     19105
     19102     19101     19104     19106     19102     19101     19104     19107
     19103     19101     19104     19105     19103     19101     19104     19106
     19103     19101     19104     19107     19104     19107     19110     19111
     19104     19107     19110     19112     19104     19107     19110     19113
     19105     19104     19107     19108     19105     19104     19107     19109
     19105     19104     19107     19110     19106     19104     19107     19108
     19106     19104     19107     19109     19106     19104     19107     19110
     19107     19110     19113     19114     19107     19110     19113     19115
     19107     19110     19113     19116     19108     19107     19110     19111
     19108     19107     19110     19112     19108     19107     19110     19113
     19109     19107     19110     19111     19109     19107     19110     19112
     19109     19107     19110     19113     19111     19110     19113     19114
     19111     19110     19113     19115     19111     19110     19113     19116
     19112     19110     19113     19114     19112     19110     19113     19115
     19112     19110     19113     19116     19117     19119     19122     19123
     19117     19119     19122     19124     19117     19119     19122     19125
     19118     19117     19119     19120     19118     19117     19119     19121
     19118     19117     19119     19122     19119     19122     19125     19126
     19119     19122     19125     19127     19119     19122     19125     19128
     19120     19119     19122     19123     19120     19119     19122     19124
     19120     19119     19122     19125     19121     19119     19122     19123
     19121     19119     19122     19124     19121     19119     19122     19125
     19122     19125     19128     19129     19122     19125     19128     19130
     19122     19125     19128     19131     19123     19122     19125     19126
     19123     19122     19125     19127     19123     19122     19125     19128
     19124     19122     19125     19126     19124     19122     19125     19127
     19124     19122     19125     19128     19125     19128     19131     19132
     19125     19128     19131     19133     19125     19128     19131     19134
     19126     19125     19128     19129     19126     19125     19128     19130
     19126     19125     19128     19131     19127     19125     19128     19129
     19127     19125     19128     19130     19127     19125     19128     19131
     19128     19131     19134     19135     19128     19131     19134     19136
     19128     19131     19134     19137     19129     19128     19131     19132
     19129     19128     19131     19133     19129     19128     19131     19134
     19130     19128     19131     19132     19130     19128     19131     19133
     19130     19128     19131     19134     19131     19134     19137     19138
     19131     19134     19137     19139     19131     19134     19137     19140
     19132     19131     19134     19135     19132     19131     19134     19136
     19132     19131     19134     19137     19133     19131     19134     19135
     19133     19131     19134     19136     19133     19131     19134     19137
     19134     19137     19140     19141     19134     19137     19140     19142
     19134     19137     19140     19143     19135     19134     19137     19138
     19135     19134     19137     19139     19135     19134     19137     19140
     19136     19134     19137     19138     19136     19134     19137     19139
     19136     19134     19137     19140     19137     19140     19143     19144
     19137     19140     19143     19145     19137     19140     19143     19146
     19138     19137     19140     19141     19138     19137     19140     19142
     19138     19137     19140     19143     19139     19137     19140     19141
     19139     19137     19140     19142     19139     19137     19140     19143
     19140     19143     19146     19147     19140     19143     19146     19148
     19140     19143     19146     19149     19141     19140     19143     19144
     19141     19140     19143     19145     19141     19140     19143     19146
     19142     19140     19143     19144     19142     19140     19143     19145
     19142     19140     19143     19146     19143     19146     19149     19150
     19143     19146     19149     19151     19143     19146     19149     19152
     19144     19143     19146     19147     19144     19143     19146     19148
     19144     19143     19146     19149     19145     19143     19146     19147
     19145     19143     19146     19148     19145     19143     19146     19149
     19146     19149     19152     19153     19146     19149     19152     19154
     19146     19149     19152     19155     19147     19146     19149     19150
     19147     19146     19149     19151     19147     19146     19149     19152
     19148     19146     19149     19150     19148     19146     19149     19151
     19148     19146     19149     19152     19149     19152     19155     19156
     19149     19152     19155     19157     19149     19152     19155     19158
     19150     19149     19152     19153     19150     19149     19152     19154
     19150     19149     19152     19155     19151     19149     19152     19153
     19151     19149     19152     19154     19151     19149     19152     19155
     19152     19155     19158     19159     19152     19155     19158     19160
     19152     19155     19158     19161     19153     19152     19155     19156
     19153     19152     19155     19157     19153     19152     19155     19158
     19154     19152     19155     19156     19154     19152     19155     19157
     19154     19152     19155     19158     19155     19158     19161     19162
     19155     19158     19161     19163     19155     19158     19161     19164
     19156     19155     19158     19159     19156     19155     19158     19160
     19156     19155     19158     19161     19157     19155     19158     19159
     19157     19155     19158     19160     19157     19155     19158     19161
     19158     19161     19164     19165     19158     19161     19164     19166
     19158     19161     19164     19167     19159     19158     19161     19162
     19159     19158     19161     19163     19159     19158     19161     19164
     19160     19158     19161     19162     19160     19158     19161     19163
     19160     19158     19161     19164     19161     19164     19167     19168
     19161     19164     19167     19169     19161     19164     19167     19170
     19162     19161     19164     19165     19162     19161     19164     19166
     19162     19161     19164     19167     19163     19161     19164     19165
     19163     19161     19164     19166     19163     19161     19164     19167
     19164     19167     19170     19171     19164     19167     19170     19172
     19164     19167     19170     19173     19165     19164     19167     19168
     19165     19164     19167     19169     19165     19164     19167     19170
     19166     19164     19167     19168     19166     19164     19167     19169
     19166     19164     19167     19170     19167     19170     19173     19174
     19167     19170     19173     19175     19167     19170     19173     19176
     19168     19167     19170     19171     19168     19167     19170     19172
     19168     19167     19170     19173     19169     19167     19170     19171
     19169     19167     19170     19172     19169     19167     19170     19173
     19170     19173     19176     19177     19170     19173     19176     19178
     19170     19173     19176     19179     19171     19170     19173     19174
     19171     19170     19173     19175     19171     19170     19173     19176
     19172     19170     19173     19174     19172     19170     19173     19175
     19172     19170     19173     19176     19173     19176     19179     19180
     19173     19176     19179     19181     19173     19176     19179     19182
     19174     19173     19176     19177     19174     19173     19176     19178
     19174     19173     19176     19179     19175     19173     19176     19177
     19175     19173     19176     19178     19175     19173     19176     19179
     19176     19179     19182     19183     19176     19179     19182     19184
     19176     19179     19182     19185     19177     19176     19179     19180
     19177     19176     19179     19181     19177     19176     19179     19182
     19178     19176     19179     19180     19178     19176     19179     19181
     19178     19176     19179     19182     19180     19179     19182     19183
     19180     19179     19182     19184     19180     19179     19182     19185
     19181     19179     19182     19183     19181     19179     19182     19184
     19181     19179     19182     19185     19186     19190     19193     19194
     19186     19190     19193     19224     19186     19232     19229     19224
     19186     19232     19229     19230     19186     19232     19229     19231
     19187     19186     19188     19189     19187     19186     19190     19191
     19187     19186     19190     19192     19187     19186     19190     19193
     19187     19186     19232     19229     19187     19186     19232     19233
     19187     19186     19232     19234     19188     19186     19190     19191
     19188     19186     19190     19192     19188     19186     19190     19193
     19188     19186     19232     19229     19188     19186     19232     19233
     19188     19186     19232     19234     19189     19188     19186     19190
     19189     19188     19186     19232     19190     19186     19232     19229
     19190     19186     19232     19233     19190     19186     19232     19234
     19190     19193     19194     19195     19190     19193     19194     19196
     19190     19193     19224     19222     19190     19193     19224     19225
     19190     19193     19224     19229     19191     19190     19186     19232
     19191     19190     19193     19194     19191     19190     19193     19224
     19192     19190     19186     19232     19192     19190     19193     19194
     19192     19190     19193     19224     19193     19190     19186     19232
     19193     19194     19196     19197     19193     19194     19196     19198
     19193     19194     19196     19199     19193     19224     19222     19199
     19193     19224     19222     19219     19193     19224     19222     19223
     19193     19224     19225     19226     19193     19224     19225     19227
     19193     19224     19225     19228     19193     19224     19229     19230
     19193     19224     19229     19231     19193     19224     19229     19232
     19194     19193     19224     19222     19194     19193     19224     19225
     19194     19193     19224     19229     19194     19196     19199     19200
     19194     19196     19199     19201     19194     19196     19199     19222
     19195     19194     19193     19224     19195     19194     19196     19197
     19195     19194     19196     19198     19195     19194     19196     19199
     19196     19194     19193     19224     19196     19199     19201     19202
     19196     19199     19201     19203     19196     19199     19201     19211
     19196     19199     19222     19219     19196     19199     19222     19223
     19196     19199     19222     19224     19197     19196     19199     19200
     19197     19196     19199     19201     19197     19196     19199     19222
     19198     19196     19199     19200     19198     19196     19199     19201
     19198     19196     19199     19222     19199     19201     19203     19204
     19199     19201     19203     19205     19199     19201     19203     19206
     19199     19201     19211     19209     19199     19201     19211     19212
     19199     19201     19211     19216     19199     19222     19219     19216
     19199     19222     19219     19220     19199     19222     19219     19221
     19199     19222     19224     19225     19199     19222     19224     19229
     19200     19199     19201     19202     19200     19199     19201     19203
     19200     19199     19201     19211     19200     19199     19222     19219
     19200     19199     19222     19223     19200     19199     19222     19224
     19201     19199     19222     19219     19201     19199     19222     19223
     19201     19199     19222     19224     19201     19203     19206     19207
     19201     19203     19206     19208     19201     19203     19206     19209
     19201     19211     19209     19206     19201     19211     19209     19210
     19201     19211     19209     19235     19201     19211     19212     19213
     19201     19211     19212     19214     19201     19211     19212     19215
     19201     19211     19216     19217     19201     19211     19216     19218
     19201     19211     19216     19219     19202     19201     19199     19222
     19202     19201     19203     19204     19202     19201     19203     19205
     19202     19201     19203     19206     19202     19201     19211     19209
     19202     19201     19211     19212     19202     19201     19211     19216
     19203     19201     19199     19222     19203     19201     19211     19209
     19203     19201     19211     19212     19203     19201     19211     19216
     19203     19206     19209     19210     19203     19206     19209     19211
     19203     19206     19209     19235     19204     19203     19201     19211
     19204     19203     19206     19207     19204     19203     19206     19208
     19204     19203     19206     19209     19205     19203     19201     19211
     19205     19203     19206     19207     19205     19203     19206     19208
     19205     19203     19206     19209     19206     19203     19201     19211
     19206     19209     19211     19212     19206     19209     19211     19216
     19206     19209     19235     19236     19206     19209     19235     19237
     19206     19209     19235     19241     19207     19206     19209     19210
     19207     19206     19209     19211     19207     19206     19209     19235
     19208     19206     19209     19210     19208     19206     19209     19211
     19208     19206     19209     19235     19209     19211     19212     19213
     19209     19211     19212     19214     19209     19211     19212     19215
     19209     19211     19216     19217     19209     19211     19216     19218
     19209     19211     19216     19219     19209     19235     19237     19238
     19209     19235     19237     19239     19209     19235     19237     19240
     19209     19235     19241     19242     19209     19235     19241     19243
     19209     19235     19241     19244     19210     19209     19211     19212
     19210     19209     19211     19216     19210     19209     19235     19236
     19210     19209     19235     19237     19210     19209     19235     19241
     19211     19201     19199     19222     19211     19209     19235     19236
     19211     19209     19235     19237     19211     19209     19235     19241
     19211     19216     19219     19220     19211     19216     19219     19221
     19211     19216     19219     19222     19212     19211     19209     19235
     19212     19211     19216     19217     19212     19211     19216     19218
     19212     19211     19216     19219     19213     19212     19211     19216
     19214     19212     19211     19216     19215     19212     19211     19216
     19216     19211     19209     19235     19216     19219     19222     19223
     19216     19219     19222     19224     19217     19216     19219     19220
     19217     19216     19219     19221     19217     19216     19219     19222
     19218     19216     19219     19220     19218     19216     19219     19221
     19218     19216     19219     19222     19219     19222     19224     19225
     19219     19222     19224     19229     19220     19219     19222     19223
     19220     19219     19222     19224     19221     19219     19222     19223
     19221     19219     19222     19224     19222     19224     19225     19226
     19222     19224     19225     19227     19222     19224     19225     19228
     19222     19224     19229     19230     19222     19224     19229     19231
     19222     19224     19229     19232     19223     19222     19224     19225
     19223     19222     19224     19229     19224     19229     19232     19233
     19224     19229     19232     19234     19225     19224     19229     19230
     19225     19224     19229     19231     19225     19224     19229     19232
     19226     19225     19224     19229     19227     19225     19224     19229
     19228     19225     19224     19229     19230     19229     19232     19233
     19230     19229     19232     19234     19231     19229     19232     19233
     19231     19229     19232     19234     19235     19241     19244     19245
     19235     19241     19244     19246     19235     19241     19244     19247
     19236     19235     19237     19238     19236     19235     19237     19239
     19236     19235     19237     19240     19236     19235     19241     19242
     19236     19235     19241     19243     19236     19235     19241     19244
     19237     19235     19241     19242     19237     19235     19241     19243
     19237     19235     19241     19244     19238     19237     19235     19241
     19239     19237     19235     19241     19240     19237     19235     19241
     19241     19244     19247     19248     19241     19244     19247     19249
     19241     19244     19247     19250     19242     19241     19244     19245
     19242     19241     19244     19246     19242     19241     19244     19247
     19243     19241     19244     19245     19243     19241     19244     19246
     19243     19241     19244     19247     19244     19247     19250     19251
     19244     19247     19250     19252     19244     19247     19250     19256
     19245     19244     19247     19248     19245     19244     19247     19249
     19245     19244     19247     19250     19246     19244     19247     19248
     19246     19244     19247     19249     19246     19244     19247     19250
     19247     19250     19252     19253     19247     19250     19252     19254
     19247     19250     19252     19255     19247     19250     19256     19257
     19247     19250     19256     19258     19247     19250     19256     19259
     19248     19247     19250     19251     19248     19247     19250     19252
     19248     19247     19250     19256     19249     19247     19250     19251
     19249     19247     19250     19252     19249     19247     19250     19256
     19251     19250     19252     19253     19251     19250     19252     19254
     19251     19250     19252     19255     19251     19250     19256     19257
     19251     19250     19256     19258     19251     19250     19256     19259
     19252     19250     19256     19257     19252     19250     19256     19258
     19252     19250     19256     19259     19253     19252     19250     19256
     19254     19252     19250     19256     19255     19252     19250     19256
     19260     19264     19267     19268     19260     19264     19267     19298
     19260     19306     19303     19298     19260     19306     19303     19304
     19260     19306     19303     19305     19261     19260     19262     19263
     19261     19260     19264     19265     19261     19260     19264     19266
     19261     19260     19264     19267     19261     19260     19306     19303
     19261     19260     19306     19307     19261     19260     19306     19308
     19262     19260     19264     19265     19262     19260     19264     19266
     19262     19260     19264     19267     19262     19260     19306     19303
     19262     19260     19306     19307     19262     19260     19306     19308
     19263     19262     19260     19264     19263     19262     19260     19306
     19264     19260     19306     19303     19264     19260     19306     19307
     19264     19260     19306     19308     19264     19267     19268     19269
     19264     19267     19268     19270     19264     19267     19298     19296
     19264     19267     19298     19299     19264     19267     19298     19303
     19265     19264     19260     19306     19265     19264     19267     19268
     19265     19264     19267     19298     19266     19264     19260     19306
     19266     19264     19267     19268     19266     19264     19267     19298
     19267     19264     19260     19306     19267     19268     19270     19271
     19267     19268     19270     19272     19267     19268     19270     19273
     19267     19298     19296     19273     19267     19298     19296     19293
     19267     19298     19296     19297     19267     19298     19299     19300
     19267     19298     19299     19301     19267     19298     19299     19302
     19267     19298     19303     19304     19267     19298     19303     19305
     19267     19298     19303     19306     19268     19267     19298     19296
     19268     19267     19298     19299     19268     19267     19298     19303
     19268     19270     19273     19274     19268     19270     19273     19275
     19268     19270     19273     19296     19269     19268     19267     19298
     19269     19268     19270     19271     19269     19268     19270     19272
     19269     19268     19270     19273     19270     19268     19267     19298
     19270     19273     19275     19276     19270     19273     19275     19277
     19270     19273     19275     19285     19270     19273     19296     19293
     19270     19273     19296     19297     19270     19273     19296     19298
     19271     19270     19273     19274     19271     19270     19273     19275
     19271     19270     19273     19296     19272     19270     19273     19274
     19272     19270     19273     19275     19272     19270     19273     19296
     19273     19275     19277     19278     19273     19275     19277     19279
     19273     19275     19277     19280     19273     19275     19285     19283
     19273     19275     19285     19286     19273     19275     19285     19290
     19273     19296     19293     19290     19273     19296     19293     19294
     19273     19296     19293     19295     19273     19296     19298     19299
     19273     19296     19298     19303     19274     19273     19275     19276
     19274     19273     19275     19277     19274     19273     19275     19285
     19274     19273     19296     19293     19274     19273     19296     19297
     19274     19273     19296     19298     19275     19273     19296     19293
     19275     19273     19296     19297     19275     19273     19296     19298
     19275     19277     19280     19281     19275     19277     19280     19282
     19275     19277     19280     19283     19275     19285     19283     19280
     19275     19285     19283     19284     19275     19285     19283     19309
     19275     19285     19286     19287     19275     19285     19286     19288
     19275     19285     19286     19289     19275     19285     19290     19291
     19275     19285     19290     19292     19275     19285     19290     19293
     19276     19275     19273     19296     19276     19275     19277     19278
     19276     19275     19277     19279     19276     19275     19277     19280
     19276     19275     19285     19283     19276     19275     19285     19286
     19276     19275     19285     19290     19277     19275     19273     19296
     19277     19275     19285     19283     19277     19275     19285     19286
     19277     19275     19285     19290     19277     19280     19283     19284
     19277     19280     19283     19285     19277     19280     19283     19309
     19278     19277     19275     19285     19278     19277     19280     19281
     19278     19277     19280     19282     19278     19277     19280     19283
     19279     19277     19275     19285     19279     19277     19280     19281
     19279     19277     19280     19282     19279     19277     19280     19283
     19280     19277     19275     19285     19280     19283     19285     19286
     19280     19283     19285     19290     19280     19283     19309     19310
     19280     19283     19309     19311     19280     19283     19309     19315
     19281     19280     19283     19284     19281     19280     19283     19285
     19281     19280     19283     19309     19282     19280     19283     19284
     19282     19280     19283     19285     19282     19280     19283     19309
     19283     19285     19286     19287     19283     19285     19286     19288
     19283     19285     19286     19289     19283     19285     19290     19291
     19283     19285     19290     19292     19283     19285     19290     19293
     19283     19309     19311     19312     19283     19309     19311     19313
     19283     19309     19311     19314     19283     19309     19315     19316
     19283     19309     19315     19317     19283     19309     19315     19318
     19284     19283     19285     19286     19284     19283     19285     19290
     19284     19283     19309     19310     19284     19283     19309     19311
     19284     19283     19309     19315     19285     19275     19273     19296
     19285     19283     19309     19310     19285     19283     19309     19311
     19285     19283     19309     19315     19285     19290     19293     19294
     19285     19290     19293     19295     19285     19290     19293     19296
     19286     19285     19283     19309     19286     19285     19290     19291
     19286     19285     19290     19292     19286     19285     19290     19293
     19287     19286     19285     19290     19288     19286     19285     19290
     19289     19286     19285     19290     19290     19285     19283     19309
     19290     19293     19296     19297     19290     19293     19296     19298
     19291     19290     19293     19294     19291     19290     19293     19295
     19291     19290     19293     19296     19292     19290     19293     19294
     19292     19290     19293     19295     19292     19290     19293     19296
     19293     19296     19298     19299     19293     19296     19298     19303
     19294     19293     19296     19297     19294     19293     19296     19298
     19295     19293     19296     19297     19295     19293     19296     19298
     19296     19298     19299     19300     19296     19298     19299     19301
     19296     19298     19299     19302     19296     19298     19303     19304
     19296     19298     19303     19305     19296     19298     19303     19306
     19297     19296     19298     19299     19297     19296     19298     19303
     19298     19303     19306     19307     19298     19303     19306     19308
     19299     19298     19303     19304     19299     19298     19303     19305
     19299     19298     19303     19306     19300     19299     19298     19303
     19301     19299     19298     19303     19302     19299     19298     19303
     19304     19303     19306     19307     19304     19303     19306     19308
     19305     19303     19306     19307     19305     19303     19306     19308
     19309     19315     19318     19319     19309     19315     19318     19320
     19309     19315     19318     19321     19310     19309     19311     19312
     19310     19309     19311     19313     19310     19309     19311     19314
     19310     19309     19315     19316     19310     19309     19315     19317
     19310     19309     19315     19318     19311     19309     19315     19316
     19311     19309     19315     19317     19311     19309     19315     19318
     19312     19311     19309     19315     19313     19311     19309     19315
     19314     19311     19309     19315     19315     19318     19321     19322
     19315     19318     19321     19323     19315     19318     19321     19324
     19316     19315     19318     19319     19316     19315     19318     19320
     19316     19315     19318     19321     19317     19315     19318     19319
     19317     19315     19318     19320     19317     19315     19318     19321
     19318     19321     19324     19325     19318     19321     19324     19326
     19318     19321     19324     19330     19319     19318     19321     19322
     19319     19318     19321     19323     19319     19318     19321     19324
     19320     19318     19321     19322     19320     19318     19321     19323
     19320     19318     19321     19324     19321     19324     19326     19327
     19321     19324     19326     19328     19321     19324     19326     19329
     19321     19324     19330     19331     19321     19324     19330     19332
     19321     19324     19330     19333     19322     19321     19324     19325
     19322     19321     19324     19326     19322     19321     19324     19330
     19323     19321     19324     19325     19323     19321     19324     19326
     19323     19321     19324     19330     19325     19324     19326     19327
     19325     19324     19326     19328     19325     19324     19326     19329
     19325     19324     19330     19331     19325     19324     19330     19332
     19325     19324     19330     19333     19326     19324     19330     19331
     19326     19324     19330     19332     19326     19324     19330     19333
     19327     19326     19324     19330     19328     19326     19324     19330
     19329     19326     19324     19330     19334     19338     19341     19342
     19334     19338     19341     19343     19334     19338     19341     19348
     19335     19334     19338     19339     19335     19334     19338     19340
     19335     19334     19338     19341     19336     19334     19338     19339
     19336     19334     19338     19340     19336     19334     19338     19341
     19337     19334     19338     19339     19337     19334     19338     19340
     19337     19334     19338     19341     19338     19341     19348     19344
     19339     19338     19341     19342     19339     19338     19341     19343
     19339     19338     19341     19348     19340     19338     19341     19342
     19340     19338     19341     19343     19340     19338     19341     19348
     19341     19348     19344     19345     19341     19348     19344     19346
     19341     19348     19344     19347     19342     19341     19348     19344
     19343     19341     19348     19344     19344     19347     19349     19350
     19344     19347     19349     19351     19344     19347     19349     19352
     19345     19344     19347     19349     19346     19344     19347     19349
     19347     19349     19352     19353     19347     19349     19352     19354
     19347     19349     19352     19360     19348     19344     19347     19349
     19349     19352     19354     19355     19349     19352     19360     19361
     19349     19352     19360     19362     19349     19352     19360     19363
     19350     19349     19352     19353     19350     19349     19352     19354
     19350     19349     19352     19360     19351     19349     19352     19353
     19351     19349     19352     19354     19351     19349     19352     19360
     19352     19354     19355     19356     19352     19354     19355     19357
     19352     19360     19363     19364     19353     19352     19354     19355
     19353     19352     19360     19361     19353     19352     19360     19362
     19353     19352     19360     19363     19354     19352     19360     19361
     19354     19352     19360     19362     19354     19352     19360     19363
     19354     19355     19357     19358     19354     19355     19357     19359
     19354     19355     19357     19369     19355     19354     19352     19360
     19355     19357     19369     19370     19355     19357     19369     19371
     19355     19357     19369     19372     19356     19355     19357     19358
     19356     19355     19357     19359     19356     19355     19357     19369
     19357     19369     19372     19373     19357     19369     19372     19374
     19357     19369     19372     19375     19358     19357     19369     19370
     19358     19357     19369     19371     19358     19357     19369     19372
     19359     19357     19369     19370     19359     19357     19369     19371
     19359     19357     19369     19372     19360     19363     19364     19365
     19360     19363     19364     19366     19361     19360     19363     19364
     19362     19360     19363     19364     19363     19364     19366     19367
     19363     19364     19366     19368     19363     19364     19366     19416
     19364     19366     19416     19417     19364     19366     19416     19418
     19364     19366     19416     19419     19365     19364     19366     19367
     19365     19364     19366     19368     19365     19364     19366     19416
     19366     19416     19419     19420     19366     19416     19419     19421
     19366     19416     19419     19422     19367     19366     19416     19417
     19367     19366     19416     19418     19367     19366     19416     19419
     19368     19366     19416     19417     19368     19366     19416     19418
     19368     19366     19416     19419     19369     19372     19375     19376
     19369     19372     19375     19377     19369     19372     19375     19378
     19370     19369     19372     19373     19370     19369     19372     19374
     19370     19369     19372     19375     19371     19369     19372     19373
     19371     19369     19372     19374     19371     19369     19372     19375
     19372     19375     19378     19379     19372     19375     19378     19380
     19372     19375     19378     19381     19373     19372     19375     19376
     19373     19372     19375     19377     19373     19372     19375     19378
     19374     19372     19375     19376     19374     19372     19375     19377
     19374     19372     19375     19378     19375     19378     19381     19382
     19375     19378     19381     19383     19375     19378     19381     19384
     19376     19375     19378     19379     19376     19375     19378     19380
     19376     19375     19378     19381     19377     19375     19378     19379
     19377     19375     19378     19380     19377     19375     19378     19381
     19378     19381     19384     19385     19378     19381     19384     19386
     19378     19381     19384     19387     19379     19378     19381     19382
     19379     19378     19381     19383     19379     19378     19381     19384
     19380     19378     19381     19382     19380     19378     19381     19383
     19380     19378     19381     19384     19381     19384     19387     19388
     19381     19384     19387     19389     19382     19381     19384     19385
     19382     19381     19384     19386     19382     19381     19384     19387
     19383     19381     19384     19385     19383     19381     19384     19386
     19383     19381     19384     19387     19384     19387     19389     19390
     19384     19387     19389     19391     19385     19384     19387     19388
     19385     19384     19387     19389     19386     19384     19387     19388
     19386     19384     19387     19389     19387     19389     19391     19392
     19387     19389     19391     19393     19387     19389     19391     19394
     19388     19387     19389     19390     19388     19387     19389     19391
     19389     19391     19394     19395     19389     19391     19394     19396
     19389     19391     19394     19397     19390     19389     19391     19392
     19390     19389     19391     19393     19390     19389     19391     19394
     19391     19394     19397     19398     19391     19394     19397     19399
     19391     19394     19397     19400     19392     19391     19394     19395
     19392     19391     19394     19396     19392     19391     19394     19397
     19393     19391     19394     19395     19393     19391     19394     19396
     19393     19391     19394     19397     19394     19397     19400     19401
     19394     19397     19400     19402     19394     19397     19400     19403
     19395     19394     19397     19398     19395     19394     19397     19399
     19395     19394     19397     19400     19396     19394     19397     19398
     19396     19394     19397     19399     19396     19394     19397     19400
     19397     19400     19403     19404     19397     19400     19403     19405
     19397     19400     19403     19406     19398     19397     19400     19401
     19398     19397     19400     19402     19398     19397     19400     19403
     19399     19397     19400     19401     19399     19397     19400     19402
     19399     19397     19400     19403     19400     19403     19406     19407
     19400     19403     19406     19408     19400     19403     19406     19409
     19401     19400     19403     19404     19401     19400     19403     19405
     19401     19400     19403     19406     19402     19400     19403     19404
     19402     19400     19403     19405     19402     19400     19403     19406
     19403     19406     19409     19410     19403     19406     19409     19411
     19403     19406     19409     19412     19404     19403     19406     19407
     19404     19403     19406     19408     19404     19403     19406     19409
     19405     19403     19406     19407     19405     19403     19406     19408
     19405     19403     19406     19409     19406     19409     19412     19413
     19406     19409     19412     19414     19406     19409     19412     19415
     19407     19406     19409     19410     19407     19406     19409     19411
     19407     19406     19409     19412     19408     19406     19409     19410
     19408     19406     19409     19411     19408     19406     19409     19412
     19410     19409     19412     19413     19410     19409     19412     19414
     19410     19409     19412     19415     19411     19409     19412     19413
     19411     19409     19412     19414     19411     19409     19412     19415
     19416     19419     19422     19423     19416     19419     19422     19424
     19416     19419     19422     19425     19417     19416     19419     19420
     19417     19416     19419     19421     19417     19416     19419     19422
     19418     19416     19419     19420     19418     19416     19419     19421
     19418     19416     19419     19422     19419     19422     19425     19426
     19419     19422     19425     19427     19419     19422     19425     19428
     19420     19419     19422     19423     19420     19419     19422     19424
     19420     19419     19422     19425     19421     19419     19422     19423
     19421     19419     19422     19424     19421     19419     19422     19425
     19422     19425     19428     19429     19422     19425     19428     19430
     19422     19425     19428     19431     19423     19422     19425     19426
     19423     19422     19425     19427     19423     19422     19425     19428
     19424     19422     19425     19426     19424     19422     19425     19427
     19424     19422     19425     19428     19425     19428     19431     19432
     19425     19428     19431     19433     19425     19428     19431     19434
     19426     19425     19428     19429     19426     19425     19428     19430
     19426     19425     19428     19431     19427     19425     19428     19429
     19427     19425     19428     19430     19427     19425     19428     19431
     19428     19431     19434     19435     19428     19431     19434     19436
     19429     19428     19431     19432     19429     19428     19431     19433
     19429     19428     19431     19434     19430     19428     19431     19432
     19430     19428     19431     19433     19430     19428     19431     19434
     19431     19434     19436     19437     19431     19434     19436     19438
     19432     19431     19434     19435     19432     19431     19434     19436
     19433     19431     19434     19435     19433     19431     19434     19436
     19434     19436     19438     19439     19434     19436     19438     19440
     19434     19436     19438     19441     19435     19434     19436     19437
     19435     19434     19436     19438     19436     19438     19441     19442
     19436     19438     19441     19443     19436     19438     19441     19444
     19437     19436     19438     19439     19437     19436     19438     19440
     19437     19436     19438     19441     19438     19441     19444     19445
     19438     19441     19444     19446     19438     19441     19444     19447
     19439     19438     19441     19442     19439     19438     19441     19443
     19439     19438     19441     19444     19440     19438     19441     19442
     19440     19438     19441     19443     19440     19438     19441     19444
     19441     19444     19447     19448     19441     19444     19447     19449
     19441     19444     19447     19450     19442     19441     19444     19445
     19442     19441     19444     19446     19442     19441     19444     19447
     19443     19441     19444     19445     19443     19441     19444     19446
     19443     19441     19444     19447     19444     19447     19450     19451
     19444     19447     19450     19452     19444     19447     19450     19453
     19445     19444     19447     19448     19445     19444     19447     19449
     19445     19444     19447     19450     19446     19444     19447     19448
     19446     19444     19447     19449     19446     19444     19447     19450
     19447     19450     19453     19454     19447     19450     19453     19455
     19447     19450     19453     19456     19448     19447     19450     19451
     19448     19447     19450     19452     19448     19447     19450     19453
     19449     19447     19450     19451     19449     19447     19450     19452
     19449     19447     19450     19453     19450     19453     19456     19457
     19450     19453     19456     19458     19450     19453     19456     19459
     19451     19450     19453     19454     19451     19450     19453     19455
     19451     19450     19453     19456     19452     19450     19453     19454
     19452     19450     19453     19455     19452     19450     19453     19456
     19453     19456     19459     19460     19453     19456     19459     19461
     19453     19456     19459     19462     19454     19453     19456     19457
     19454     19453     19456     19458     19454     19453     19456     19459
     19455     19453     19456     19457     19455     19453     19456     19458
     19455     19453     19456     19459     19457     19456     19459     19460
     19457     19456     19459     19461     19457     19456     19459     19462
     19458     19456     19459     19460     19458     19456     19459     19461
     19458     19456     19459     19462     19463     19467     19470     19471
     19463     19467     19470     19501     19463     19509     19506     19501
     19463     19509     19506     19507     19463     19509     19506     19508
     19464     19463     19465     19466     19464     19463     19467     19468
     19464     19463     19467     19469     19464     19463     19467     19470
     19464     19463     19509     19506     19464     19463     19509     19510
     19464     19463     19509     19511     19465     19463     19467     19468
     19465     19463     19467     19469     19465     19463     19467     19470
     19465     19463     19509     19506     19465     19463     19509     19510
     19465     19463     19509     19511     19466     19465     19463     19467
     19466     19465     19463     19509     19467     19463     19509     19506
     19467     19463     19509     19510     19467     19463     19509     19511
     19467     19470     19471     19472     19467     19470     19471     19473
     19467     19470     19501     19499     19467     19470     19501     19502
     19467     19470     19501     19506     19468     19467     19463     19509
     19468     19467     19470     19471     19468     19467     19470     19501
     19469     19467     19463     19509     19469     19467     19470     19471
     19469     19467     19470     19501     19470     19467     19463     19509
     19470     19471     19473     19474     19470     19471     19473     19475
     19470     19471     19473     19476     19470     19501     19499     19476
     19470     19501     19499     19496     19470     19501     19499     19500
     19470     19501     19502     19503     19470     19501     19502     19504
     19470     19501     19502     19505     19470     19501     19506     19507
     19470     19501     19506     19508     19470     19501     19506     19509
     19471     19470     19501     19499     19471     19470     19501     19502
     19471     19470     19501     19506     19471     19473     19476     19477
     19471     19473     19476     19478     19471     19473     19476     19499
     19472     19471     19470     19501     19472     19471     19473     19474
     19472     19471     19473     19475     19472     19471     19473     19476
     19473     19471     19470     19501     19473     19476     19478     19479
     19473     19476     19478     19480     19473     19476     19478     19488
     19473     19476     19499     19496     19473     19476     19499     19500
     19473     19476     19499     19501     19474     19473     19476     19477
     19474     19473     19476     19478     19474     19473     19476     19499
     19475     19473     19476     19477     19475     19473     19476     19478
     19475     19473     19476     19499     19476     19478     19480     19481
     19476     19478     19480     19482     19476     19478     19480     19483
     19476     19478     19488     19486     19476     19478     19488     19489
     19476     19478     19488     19493     19476     19499     19496     19493
     19476     19499     19496     19497     19476     19499     19496     19498
     19476     19499     19501     19502     19476     19499     19501     19506
     19477     19476     19478     19479     19477     19476     19478     19480
     19477     19476     19478     19488     19477     19476     19499     19496
     19477     19476     19499     19500     19477     19476     19499     19501
     19478     19476     19499     19496     19478     19476     19499     19500
     19478     19476     19499     19501     19478     19480     19483     19484
     19478     19480     19483     19485     19478     19480     19483     19486
     19478     19488     19486     19483     19478     19488     19486     19487
     19478     19488     19486     19512     19478     19488     19489     19490
     19478     19488     19489     19491     19478     19488     19489     19492
     19478     19488     19493     19494     19478     19488     19493     19495
     19478     19488     19493     19496     19479     19478     19476     19499
     19479     19478     19480     19481     19479     19478     19480     19482
     19479     19478     19480     19483     19479     19478     19488     19486
     19479     19478     19488     19489     19479     19478     19488     19493
     19480     19478     19476     19499     19480     19478     19488     19486
     19480     19478     19488     19489     19480     19478     19488     19493
     19480     19483     19486     19487     19480     19483     19486     19488
     19480     19483     19486     19512     19481     19480     19478     19488
     19481     19480     19483     19484     19481     19480     19483     19485
     19481     19480     19483     19486     19482     19480     19478     19488
     19482     19480     19483     19484     19482     19480     19483     19485
     19482     19480     19483     19486     19483     19480     19478     19488
     19483     19486     19488     19489     19483     19486     19488     19493
     19483     19486     19512     19513     19483     19486     19512     19514
     19483     19486     19512     19518     19484     19483     19486     19487
     19484     19483     19486     19488     19484     19483     19486     19512
     19485     19483     19486     19487     19485     19483     19486     19488
     19485     19483     19486     19512     19486     19488     19489     19490
     19486     19488     19489     19491     19486     19488     19489     19492
     19486     19488     19493     19494     19486     19488     19493     19495
     19486     19488     19493     19496     19486     19512     19514     19515
     19486     19512     19514     19516     19486     19512     19514     19517
     19486     19512     19518     19519     19486     19512     19518     19520
     19486     19512     19518     19521     19487     19486     19488     19489
     19487     19486     19488     19493     19487     19486     19512     19513
     19487     19486     19512     19514     19487     19486     19512     19518
     19488     19478     19476     19499     19488     19486     19512     19513
     19488     19486     19512     19514     19488     19486     19512     19518
     19488     19493     19496     19497     19488     19493     19496     19498
     19488     19493     19496     19499     19489     19488     19486     19512
     19489     19488     19493     19494     19489     19488     19493     19495
     19489     19488     19493     19496     19490     19489     19488     19493
     19491     19489     19488     19493     19492     19489     19488     19493
     19493     19488     19486     19512     19493     19496     19499     19500
     19493     19496     19499     19501     19494     19493     19496     19497
     19494     19493     19496     19498     19494     19493     19496     19499
     19495     19493     19496     19497     19495     19493     19496     19498
     19495     19493     19496     19499     19496     19499     19501     19502
     19496     19499     19501     19506     19497     19496     19499     19500
     19497     19496     19499     19501     19498     19496     19499     19500
     19498     19496     19499     19501     19499     19501     19502     19503
     19499     19501     19502     19504     19499     19501     19502     19505
     19499     19501     19506     19507     19499     19501     19506     19508
     19499     19501     19506     19509     19500     19499     19501     19502
     19500     19499     19501     19506     19501     19506     19509     19510
     19501     19506     19509     19511     19502     19501     19506     19507
     19502     19501     19506     19508     19502     19501     19506     19509
     19503     19502     19501     19506     19504     19502     19501     19506
     19505     19502     19501     19506     19507     19506     19509     19510
     19507     19506     19509     19511     19508     19506     19509     19510
     19508     19506     19509     19511     19512     19518     19521     19522
     19512     19518     19521     19523     19512     19518     19521     19524
     19513     19512     19514     19515     19513     19512     19514     19516
     19513     19512     19514     19517     19513     19512     19518     19519
     19513     19512     19518     19520     19513     19512     19518     19521
     19514     19512     19518     19519     19514     19512     19518     19520
     19514     19512     19518     19521     19515     19514     19512     19518
     19516     19514     19512     19518     19517     19514     19512     19518
     19518     19521     19524     19525     19518     19521     19524     19526
     19518     19521     19524     19527     19519     19518     19521     19522
     19519     19518     19521     19523     19519     19518     19521     19524
     19520     19518     19521     19522     19520     19518     19521     19523
     19520     19518     19521     19524     19521     19524     19527     19528
     19521     19524     19527     19529     19521     19524     19527     19533
     19522     19521     19524     19525     19522     19521     19524     19526
     19522     19521     19524     19527     19523     19521     19524     19525
     19523     19521     19524     19526     19523     19521     19524     19527
     19524     19527     19529     19530     19524     19527     19529     19531
     19524     19527     19529     19532     19524     19527     19533     19534
     19524     19527     19533     19535     19524     19527     19533     19536
     19525     19524     19527     19528     19525     19524     19527     19529
     19525     19524     19527     19533     19526     19524     19527     19528
     19526     19524     19527     19529     19526     19524     19527     19533
     19528     19527     19529     19530     19528     19527     19529     19531
     19528     19527     19529     19532     19528     19527     19533     19534
     19528     19527     19533     19535     19528     19527     19533     19536
     19529     19527     19533     19534     19529     19527     19533     19535
     19529     19527     19533     19536     19530     19529     19527     19533
     19531     19529     19527     19533     19532     19529     19527     19533
     19537     19550     19553     19554     19537     19550     19553     19555
     19537     19550     19553     19560     19538     19537     19542     19543
     19538     19537     19542     19544     19538     19537     19542     19545
     19538     19537     19546     19547     19538     19537     19546     19548
     19538     19537     19546     19549     19538     19537     19550     19551
     19538     19537     19550     19552     19538     19537     19550     19553
     19539     19538     19537     19542     19539     19538     19537     19546
     19539     19538     19537     19550     19540     19538     19537     19542
     19540     19538     19537     19546     19540     19538     19537     19550
     19541     19538     19537     19542     19541     19538     19537     19546
     19541     19538     19537     19550     19542     19537     19546     19547
     19542     19537     19546     19548     19542     19537     19546     19549
     19542     19537     19550     19551     19542     19537     19550     19552
     19542     19537     19550     19553     19543     19542     19537     19546
     19543     19542     19537     19550     19544     19542     19537     19546
     19544     19542     19537     19550     19545     19542     19537     19546
     19545     19542     19537     19550     19546     19537     19550     19551
     19546     19537     19550     19552     19546     19537     19550     19553
     19547     19546     19537     19550     19548     19546     19537     19550
     19549     19546     19537     19550     19550     19553     19560     19556
     19551     19550     19553     19554     19551     19550     19553     19555
     19551     19550     19553     19560     19552     19550     19553     19554
     19552     19550     19553     19555     19552     19550     19553     19560
     19553     19560     19556     19557     19553     19560     19556     19558
     19553     19560     19556     19559     19554     19553     19560     19556
     19555     19553     19560     19556     19556     19559     19561     19562
     19556     19559     19561     19563     19556     19559     19561     19566
     19557     19556     19559     19561     19558     19556     19559     19561
     19559     19561     19566     19564     19559     19561     19566     19567
     19559     19561     19566     19568     19560     19556     19559     19561
     19561     19566     19564     19565     19561     19566     19564     19616
     19561     19566     19568     19569     19561     19566     19568     19570
     19561     19566     19568     19572     19562     19561     19566     19564
     19562     19561     19566     19567     19562     19561     19566     19568
     19563     19561     19566     19564     19563     19561     19566     19567
     19563     19561     19566     19568     19564     19566     19568     19569
     19564     19566     19568     19570     19564     19566     19568     19572
     19564     19616     19618     19619     19564     19616     19618     19620
     19564     19616     19618     19621     19565     19564     19566     19567
     19565     19564     19566     19568     19565     19564     19616     19617
     19565     19564     19616     19618     19566     19564     19616     19617
     19566     19564     19616     19618     19566     19568     19570     19571
     19566     19568     19572     19573     19566     19568     19572     19574
     19567     19566     19564     19616     19567     19566     19568     19569
     19567     19566     19568     19570     19567     19566     19568     19572
     19568     19566     19564     19616     19568     19572     19574     19575
     19568     19572     19574     19576     19569     19568     19570     19571
     19569     19568     19572     19573     19569     19568     19572     19574
     19570     19568     19572     19573     19570     19568     19572     19574
     19571     19570     19568     19572     19572     19574     19576     19577
     19572     19574     19576     19578     19572     19574     19576     19579
     19573     19572     19574     19575     19573     19572     19574     19576
     19574     19576     19579     19580     19574     19576     19579     19581
     19574     19576     19579     19582     19575     19574     19576     19577
     19575     19574     19576     19578     19575     19574     19576     19579
     19576     19579     19582     19583     19576     19579     19582     19584
     19576     19579     19582     19585     19577     19576     19579     19580
     19577     19576     19579     19581     19577     19576     19579     19582
     19578     19576     19579     19580     19578     19576     19579     19581
     19578     19576     19579     19582     19579     19582     19585     19586
     19579     19582     19585     19587     19579     19582     19585     19588
     19580     19579     19582     19583     19580     19579     19582     19584
     19580     19579     19582     19585     19581     19579     19582     19583
     19581     19579     19582     19584     19581     19579     19582     19585
     19582     19585     19588     19589     19582     19585     19588     19590
     19582     19585     19588     19591     19583     19582     19585     19586
     19583     19582     19585     19587     19583     19582     19585     19588
     19584     19582     19585     19586     19584     19582     19585     19587
     19584     19582     19585     19588     19585     19588     19591     19592
     19585     19588     19591     19593     19585     19588     19591     19594
     19586     19585     19588     19589     19586     19585     19588     19590
     19586     19585     19588     19591     19587     19585     19588     19589
     19587     19585     19588     19590     19587     19585     19588     19591
     19588     19591     19594     19595     19588     19591     19594     19596
     19588     19591     19594     19597     19589     19588     19591     19592
     19589     19588     19591     19593     19589     19588     19591     19594
     19590     19588     19591     19592     19590     19588     19591     19593
     19590     19588     19591     19594     19591     19594     19597     19598
     19591     19594     19597     19599     19591     19594     19597     19600
     19592     19591     19594     19595     19592     19591     19594     19596
     19592     19591     19594     19597     19593     19591     19594     19595
     19593     19591     19594     19596     19593     19591     19594     19597
     19594     19597     19600     19601     19594     19597     19600     19602
     19594     19597     19600     19603     19595     19594     19597     19598
     19595     19594     19597     19599     19595     19594     19597     19600
     19596     19594     19597     19598     19596     19594     19597     19599
     19596     19594     19597     19600     19597     19600     19603     19604
     19597     19600     19603     19605     19597     19600     19603     19606
     19598     19597     19600     19601     19598     19597     19600     19602
     19598     19597     19600     19603     19599     19597     19600     19601
     19599     19597     19600     19602     19599     19597     19600     19603
     19600     19603     19606     19607     19600     19603     19606     19608
     19600     19603     19606     19609     19601     19600     19603     19604
     19601     19600     19603     19605     19601     19600     19603     19606
     19602     19600     19603     19604     19602     19600     19603     19605
     19602     19600     19603     19606     19603     19606     19609     19610
     19603     19606     19609     19611     19603     19606     19609     19612
     19604     19603     19606     19607     19604     19603     19606     19608
     19604     19603     19606     19609     19605     19603     19606     19607
     19605     19603     19606     19608     19605     19603     19606     19609
     19606     19609     19612     19613     19606     19609     19612     19614
     19606     19609     19612     19615     19607     19606     19609     19610
     19607     19606     19609     19611     19607     19606     19609     19612
     19608     19606     19609     19610     19608     19606     19609     19611
     19608     19606     19609     19612     19610     19609     19612     19613
     19610     19609     19612     19614     19610     19609     19612     19615
     19611     19609     19612     19613     19611     19609     19612     19614
     19611     19609     19612     19615     19616     19618     19621     19622
     19616     19618     19621     19623     19616     19618     19621     19624
     19617     19616     19618     19619     19617     19616     19618     19620
     19617     19616     19618     19621     19618     19621     19624     19625
     19618     19621     19624     19626     19618     19621     19624     19627
     19619     19618     19621     19622     19619     19618     19621     19623
     19619     19618     19621     19624     19620     19618     19621     19622
     19620     19618     19621     19623     19620     19618     19621     19624
     19621     19624     19627     19628     19621     19624     19627     19629
     19621     19624     19627     19630     19622     19621     19624     19625
     19622     19621     19624     19626     19622     19621     19624     19627
     19623     19621     19624     19625     19623     19621     19624     19626
     19623     19621     19624     19627     19624     19627     19630     19631
     19624     19627     19630     19632     19624     19627     19630     19633
     19625     19624     19627     19628     19625     19624     19627     19629
     19625     19624     19627     19630     19626     19624     19627     19628
     19626     19624     19627     19629     19626     19624     19627     19630
     19627     19630     19633     19634     19627     19630     19633     19635
     19627     19630     19633     19636     19628     19627     19630     19631
     19628     19627     19630     19632     19628     19627     19630     19633
     19629     19627     19630     19631     19629     19627     19630     19632
     19629     19627     19630     19633     19630     19633     19636     19637
     19630     19633     19636     19638     19630     19633     19636     19639
     19631     19630     19633     19634     19631     19630     19633     19635
     19631     19630     19633     19636     19632     19630     19633     19634
     19632     19630     19633     19635     19632     19630     19633     19636
     19633     19636     19639     19640     19633     19636     19639     19641
     19633     19636     19639     19642     19634     19633     19636     19637
     19634     19633     19636     19638     19634     19633     19636     19639
     19635     19633     19636     19637     19635     19633     19636     19638
     19635     19633     19636     19639     19636     19639     19642     19643
     19636     19639     19642     19644     19636     19639     19642     19645
     19637     19636     19639     19640     19637     19636     19639     19641
     19637     19636     19639     19642     19638     19636     19639     19640
     19638     19636     19639     19641     19638     19636     19639     19642
     19639     19642     19645     19646     19639     19642     19645     19647
     19639     19642     19645     19648     19640     19639     19642     19643
     19640     19639     19642     19644     19640     19639     19642     19645
     19641     19639     19642     19643     19641     19639     19642     19644
     19641     19639     19642     19645     19642     19645     19648     19649
     19642     19645     19648     19650     19642     19645     19648     19651
     19643     19642     19645     19646     19643     19642     19645     19647
     19643     19642     19645     19648     19644     19642     19645     19646
     19644     19642     19645     19647     19644     19642     19645     19648
     19645     19648     19651     19652     19645     19648     19651     19653
     19645     19648     19651     19654     19646     19645     19648     19649
     19646     19645     19648     19650     19646     19645     19648     19651
     19647     19645     19648     19649     19647     19645     19648     19650
     19647     19645     19648     19651     19648     19651     19654     19655
     19648     19651     19654     19656     19648     19651     19654     19657
     19649     19648     19651     19652     19649     19648     19651     19653
     19649     19648     19651     19654     19650     19648     19651     19652
     19650     19648     19651     19653     19650     19648     19651     19654
     19651     19654     19657     19658     19651     19654     19657     19659
     19651     19654     19657     19660     19652     19651     19654     19655
     19652     19651     19654     19656     19652     19651     19654     19657
     19653     19651     19654     19655     19653     19651     19654     19656
     19653     19651     19654     19657     19654     19657     19660     19661
     19654     19657     19660     19662     19654     19657     19660     19663
     19655     19654     19657     19658     19655     19654     19657     19659
     19655     19654     19657     19660     19656     19654     19657     19658
     19656     19654     19657     19659     19656     19654     19657     19660
     19657     19660     19663     19664     19657     19660     19663     19665
     19657     19660     19663     19666     19658     19657     19660     19661
     19658     19657     19660     19662     19658     19657     19660     19663
     19659     19657     19660     19661     19659     19657     19660     19662
     19659     19657     19660     19663     19660     19663     19666     19667
     19660     19663     19666     19668     19660     19663     19666     19669
     19661     19660     19663     19664     19661     19660     19663     19665
     19661     19660     19663     19666     19662     19660     19663     19664
     19662     19660     19663     19665     19662     19660     19663     19666
     19663     19666     19669     19670     19663     19666     19669     19671
     19663     19666     19669     19672     19664     19663     19666     19667
     19664     19663     19666     19668     19664     19663     19666     19669
     19665     19663     19666     19667     19665     19663     19666     19668
     19665     19663     19666     19669     19666     19669     19672     19673
     19666     19669     19672     19674     19666     19669     19672     19675
     19667     19666     19669     19670     19667     19666     19669     19671
     19667     19666     19669     19672     19668     19666     19669     19670
     19668     19666     19669     19671     19668     19666     19669     19672
     19669     19672     19675     19676     19669     19672     19675     19677
     19669     19672     19675     19678     19670     19669     19672     19673
     19670     19669     19672     19674     19670     19669     19672     19675
     19671     19669     19672     19673     19671     19669     19672     19674
     19671     19669     19672     19675     19672     19675     19678     19679
     19672     19675     19678     19680     19672     19675     19678     19681
     19673     19672     19675     19676     19673     19672     19675     19677
     19673     19672     19675     19678     19674     19672     19675     19676
     19674     19672     19675     19677     19674     19672     19675     19678
     19675     19678     19681     19682     19675     19678     19681     19683
     19675     19678     19681     19684     19676     19675     19678     19679
     19676     19675     19678     19680     19676     19675     19678     19681
     19677     19675     19678     19679     19677     19675     19678     19680
     19677     19675     19678     19681     19679     19678     19681     19682
     19679     19678     19681     19683     19679     19678     19681     19684
     19680     19678     19681     19682     19680     19678     19681     19683
     19680     19678     19681     19684     19685     19686     19701     19702
     19685     19686     19701     19703     19685     19686     19701     19707
     19686     19685     19689     19690     19686     19685     19689     19691
     19686     19685     19689     19692     19686     19685     19693     19694
     19686     19685     19693     19695     19686     19685     19693     19696
     19686     19685     19697     19698     19686     19685     19697     19699
     19686     19685     19697     19700     19686     19701     19707     19704
     19687     19686     19685     19689     19687     19686     19685     19693
     19687     19686     19685     19697     19687     19686     19701     19702
     19687     19686     19701     19703     19687     19686     19701     19707
     19688     19686     19685     19689     19688     19686     19685     19693
     19688     19686     19685     19697     19688     19686     19701     19702
     19688     19686     19701     19703     19688     19686     19701     19707
     19689     19685     19686     19701     19689     19685     19693     19694
     19689     19685     19693     19695     19689     19685     19693     19696
     19689     19685     19697     19698     19689     19685     19697     19699
     19689     19685     19697     19700     19690     19689     19685     19693
     19690     19689     19685     19697     19691     19689     19685     19693
     19691     19689     19685     19697     19692     19689     19685     19693
     19692     19689     19685     19697     19693     19685     19686     19701
     19693     19685     19697     19698     19693     19685     19697     19699
     19693     19685     19697     19700     19694     19693     19685     19697
     19695     19693     19685     19697     19696     19693     19685     19697
     19697     19685     19686     19701     19701     19707     19704     19705
     19701     19707     19704     19706     19701     19707     19704     19708
     19702     19701     19707     19704     19703     19701     19707     19704
     19704     19708     19709     19710     19704     19708     19709     19711
     19704     19708     19709     19712     19705     19704     19708     19709
     19706     19704     19708     19709     19707     19704     19708     19709
     19708     19709     19712     19713     19708     19709     19712     19714
     19708     19709     19712     19720     19709     19712     19714     19715
     19709     19712     19720     19721     19709     19712     19720     19722
     19709     19712     19720     19723     19710     19709     19712     19713
     19710     19709     19712     19714     19710     19709     19712     19720
     19711     19709     19712     19713     19711     19709     19712     19714
     19711     19709     19712     19720     19712     19714     19715     19716
     19712     19714     19715     19717     19712     19720     19723     19724
     19713     19712     19714     19715     19713     19712     19720     19721
     19713     19712     19720     19722     19713     19712     19720     19723
     19714     19712     19720     19721     19714     19712     19720     19722
     19714     19712     19720     19723     19714     19715     19717     19718
     19714     19715     19717     19719     19714     19715     19717     19729
     19715     19714     19712     19720     19715     19717     19729     19730
     19715     19717     19729     19731     19715     19717     19729     19732
     19716     19715     19717     19718     19716     19715     19717     19719
     19716     19715     19717     19729     19717     19729     19732     19733
     19717     19729     19732     19734     19717     19729     19732     19735
     19718     19717     19729     19730     19718     19717     19729     19731
     19718     19717     19729     19732     19719     19717     19729     19730
     19719     19717     19729     19731     19719     19717     19729     19732
     19720     19723     19724     19725     19720     19723     19724     19726
     19721     19720     19723     19724     19722     19720     19723     19724
     19723     19724     19726     19727     19723     19724     19726     19728
     19723     19724     19726     19776     19724     19726     19776     19777
     19724     19726     19776     19778     19724     19726     19776     19779
     19725     19724     19726     19727     19725     19724     19726     19728
     19725     19724     19726     19776     19726     19776     19779     19780
     19726     19776     19779     19781     19726     19776     19779     19782
     19727     19726     19776     19777     19727     19726     19776     19778
     19727     19726     19776     19779     19728     19726     19776     19777
     19728     19726     19776     19778     19728     19726     19776     19779
     19729     19732     19735     19736     19729     19732     19735     19737
     19729     19732     19735     19738     19730     19729     19732     19733
     19730     19729     19732     19734     19730     19729     19732     19735
     19731     19729     19732     19733     19731     19729     19732     19734
     19731     19729     19732     19735     19732     19735     19738     19739
     19732     19735     19738     19740     19732     19735     19738     19741
     19733     19732     19735     19736     19733     19732     19735     19737
     19733     19732     19735     19738     19734     19732     19735     19736
     19734     19732     19735     19737     19734     19732     19735     19738
     19735     19738     19741     19742     19735     19738     19741     19743
     19735     19738     19741     19744     19736     19735     19738     19739
     19736     19735     19738     19740     19736     19735     19738     19741
     19737     19735     19738     19739     19737     19735     19738     19740
     19737     19735     19738     19741     19738     19741     19744     19745
     19738     19741     19744     19746     19738     19741     19744     19747
     19739     19738     19741     19742     19739     19738     19741     19743
     19739     19738     19741     19744     19740     19738     19741     19742
     19740     19738     19741     19743     19740     19738     19741     19744
     19741     19744     19747     19748     19741     19744     19747     19749
     19742     19741     19744     19745     19742     19741     19744     19746
     19742     19741     19744     19747     19743     19741     19744     19745
     19743     19741     19744     19746     19743     19741     19744     19747
     19744     19747     19749     19750     19744     19747     19749     19751
     19745     19744     19747     19748     19745     19744     19747     19749
     19746     19744     19747     19748     19746     19744     19747     19749
     19747     19749     19751     19752     19747     19749     19751     19753
     19747     19749     19751     19754     19748     19747     19749     19750
     19748     19747     19749     19751     19749     19751     19754     19755
     19749     19751     19754     19756     19749     19751     19754     19757
     19750     19749     19751     19752     19750     19749     19751     19753
     19750     19749     19751     19754     19751     19754     19757     19758
     19751     19754     19757     19759     19751     19754     19757     19760
     19752     19751     19754     19755     19752     19751     19754     19756
     19752     19751     19754     19757     19753     19751     19754     19755
     19753     19751     19754     19756     19753     19751     19754     19757
     19754     19757     19760     19761     19754     19757     19760     19762
     19754     19757     19760     19763     19755     19754     19757     19758
     19755     19754     19757     19759     19755     19754     19757     19760
     19756     19754     19757     19758     19756     19754     19757     19759
     19756     19754     19757     19760     19757     19760     19763     19764
     19757     19760     19763     19765     19757     19760     19763     19766
     19758     19757     19760     19761     19758     19757     19760     19762
     19758     19757     19760     19763     19759     19757     19760     19761
     19759     19757     19760     19762     19759     19757     19760     19763
     19760     19763     19766     19767     19760     19763     19766     19768
     19760     19763     19766     19769     19761     19760     19763     19764
     19761     19760     19763     19765     19761     19760     19763     19766
     19762     19760     19763     19764     19762     19760     19763     19765
     19762     19760     19763     19766     19763     19766     19769     19770
     19763     19766     19769     19771     19763     19766     19769     19772
     19764     19763     19766     19767     19764     19763     19766     19768
     19764     19763     19766     19769     19765     19763     19766     19767
     19765     19763     19766     19768     19765     19763     19766     19769
     19766     19769     19772     19773     19766     19769     19772     19774
     19766     19769     19772     19775     19767     19766     19769     19770
     19767     19766     19769     19771     19767     19766     19769     19772
     19768     19766     19769     19770     19768     19766     19769     19771
     19768     19766     19769     19772     19770     19769     19772     19773
     19770     19769     19772     19774     19770     19769     19772     19775
     19771     19769     19772     19773     19771     19769     19772     19774
     19771     19769     19772     19775     19776     19779     19782     19783
     19776     19779     19782     19784     19776     19779     19782     19785
     19777     19776     19779     19780     19777     19776     19779     19781
     19777     19776     19779     19782     19778     19776     19779     19780
     19778     19776     19779     19781     19778     19776     19779     19782
     19779     19782     19785     19786     19779     19782     19785     19787
     19779     19782     19785     19788     19780     19779     19782     19783
     19780     19779     19782     19784     19780     19779     19782     19785
     19781     19779     19782     19783     19781     19779     19782     19784
     19781     19779     19782     19785     19782     19785     19788     19789
     19782     19785     19788     19790     19782     19785     19788     19791
     19783     19782     19785     19786     19783     19782     19785     19787
     19783     19782     19785     19788     19784     19782     19785     19786
     19784     19782     19785     19787     19784     19782     19785     19788
     19785     19788     19791     19792     19785     19788     19791     19793
     19785     19788     19791     19794     19786     19785     19788     19789
     19786     19785     19788     19790     19786     19785     19788     19791
     19787     19785     19788     19789     19787     19785     19788     19790
     19787     19785     19788     19791     19788     19791     19794     19795
     19788     19791     19794     19796     19789     19788     19791     19792
     19789     19788     19791     19793     19789     19788     19791     19794
     19790     19788     19791     19792     19790     19788     19791     19793
     19790     19788     19791     19794     19791     19794     19796     19797
     19791     19794     19796     19798     19792     19791     19794     19795
     19792     19791     19794     19796     19793     19791     19794     19795
     19793     19791     19794     19796     19794     19796     19798     19799
     19794     19796     19798     19800     19794     19796     19798     19801
     19795     19794     19796     19797     19795     19794     19796     19798
     19796     19798     19801     19802     19796     19798     19801     19803
     19796     19798     19801     19804     19797     19796     19798     19799
     19797     19796     19798     19800     19797     19796     19798     19801
     19798     19801     19804     19805     19798     19801     19804     19806
     19798     19801     19804     19807     19799     19798     19801     19802
     19799     19798     19801     19803     19799     19798     19801     19804
     19800     19798     19801     19802     19800     19798     19801     19803
     19800     19798     19801     19804     19801     19804     19807     19808
     19801     19804     19807     19809     19801     19804     19807     19810
     19802     19801     19804     19805     19802     19801     19804     19806
     19802     19801     19804     19807     19803     19801     19804     19805
     19803     19801     19804     19806     19803     19801     19804     19807
     19804     19807     19810     19811     19804     19807     19810     19812
     19804     19807     19810     19813     19805     19804     19807     19808
     19805     19804     19807     19809     19805     19804     19807     19810
     19806     19804     19807     19808     19806     19804     19807     19809
     19806     19804     19807     19810     19807     19810     19813     19814
     19807     19810     19813     19815     19807     19810     19813     19816
     19808     19807     19810     19811     19808     19807     19810     19812
     19808     19807     19810     19813     19809     19807     19810     19811
     19809     19807     19810     19812     19809     19807     19810     19813
     19810     19813     19816     19817     19810     19813     19816     19818
     19810     19813     19816     19819     19811     19810     19813     19814
     19811     19810     19813     19815     19811     19810     19813     19816
     19812     19810     19813     19814     19812     19810     19813     19815
     19812     19810     19813     19816     19813     19816     19819     19820
     19813     19816     19819     19821     19813     19816     19819     19822
     19814     19813     19816     19817     19814     19813     19816     19818
     19814     19813     19816     19819     19815     19813     19816     19817
     19815     19813     19816     19818     19815     19813     19816     19819
     19817     19816     19819     19820     19817     19816     19819     19821
     19817     19816     19819     19822     19818     19816     19819     19820
     19818     19816     19819     19821     19818     19816     19819     19822
     19823     19824     19839     19840     19823     19824     19839     19841
     19823     19824     19839     19845     19824     19823     19827     19828
     19824     19823     19827     19829     19824     19823     19827     19830
     19824     19823     19831     19832     19824     19823     19831     19833
     19824     19823     19831     19834     19824     19823     19835     19836
     19824     19823     19835     19837     19824     19823     19835     19838
     19824     19839     19845     19842     19825     19824     19823     19827
     19825     19824     19823     19831     19825     19824     19823     19835
     19825     19824     19839     19840     19825     19824     19839     19841
     19825     19824     19839     19845     19826     19824     19823     19827
     19826     19824     19823     19831     19826     19824     19823     19835
     19826     19824     19839     19840     19826     19824     19839     19841
     19826     19824     19839     19845     19827     19823     19824     19839
     19827     19823     19831     19832     19827     19823     19831     19833
     19827     19823     19831     19834     19827     19823     19835     19836
     19827     19823     19835     19837     19827     19823     19835     19838
     19828     19827     19823     19831     19828     19827     19823     19835
     19829     19827     19823     19831     19829     19827     19823     19835
     19830     19827     19823     19831     19830     19827     19823     19835
     19831     19823     19824     19839     19831     19823     19835     19836
     19831     19823     19835     19837     19831     19823     19835     19838
     19832     19831     19823     19835     19833     19831     19823     19835
     19834     19831     19823     19835     19835     19823     19824     19839
     19839     19845     19842     19843     19839     19845     19842     19844
     19839     19845     19842     19846     19840     19839     19845     19842
     19841     19839     19845     19842     19842     19846     19847     19848
     19842     19846     19847     19849     19842     19846     19847     19850
     19843     19842     19846     19847     19844     19842     19846     19847
     19845     19842     19846     19847     19846     19847     19850     19851
     19846     19847     19850     19852     19846     19847     19850     19858
     19847     19850     19852     19853     19847     19850     19858     19859
     19847     19850     19858     19860     19847     19850     19858     19861
     19848     19847     19850     19851     19848     19847     19850     19852
     19848     19847     19850     19858     19849     19847     19850     19851
     19849     19847     19850     19852     19849     19847     19850     19858
     19850     19852     19853     19854     19850     19852     19853     19855
     19850     19858     19861     19862     19851     19850     19852     19853
     19851     19850     19858     19859     19851     19850     19858     19860
     19851     19850     19858     19861     19852     19850     19858     19859
     19852     19850     19858     19860     19852     19850     19858     19861
     19852     19853     19855     19856     19852     19853     19855     19857
     19852     19853     19855     19867     19853     19852     19850     19858
     19853     19855     19867     19868     19853     19855     19867     19869
     19853     19855     19867     19870     19854     19853     19855     19856
     19854     19853     19855     19857     19854     19853     19855     19867
     19855     19867     19870     19871     19855     19867     19870     19872
     19855     19867     19870     19873     19856     19855     19867     19868
     19856     19855     19867     19869     19856     19855     19867     19870
     19857     19855     19867     19868     19857     19855     19867     19869
     19857     19855     19867     19870     19858     19861     19862     19863
     19858     19861     19862     19864     19859     19858     19861     19862
     19860     19858     19861     19862     19861     19862     19864     19865
     19861     19862     19864     19866     19861     19862     19864     19914
     19862     19864     19914     19915     19862     19864     19914     19916
     19862     19864     19914     19917     19863     19862     19864     19865
     19863     19862     19864     19866     19863     19862     19864     19914
     19864     19914     19917     19918     19864     19914     19917     19919
     19864     19914     19917     19920     19865     19864     19914     19915
     19865     19864     19914     19916     19865     19864     19914     19917
     19866     19864     19914     19915     19866     19864     19914     19916
     19866     19864     19914     19917     19867     19870     19873     19874
     19867     19870     19873     19875     19867     19870     19873     19876
     19868     19867     19870     19871     19868     19867     19870     19872
     19868     19867     19870     19873     19869     19867     19870     19871
     19869     19867     19870     19872     19869     19867     19870     19873
     19870     19873     19876     19877     19870     19873     19876     19878
     19870     19873     19876     19879     19871     19870     19873     19874
     19871     19870     19873     19875     19871     19870     19873     19876
     19872     19870     19873     19874     19872     19870     19873     19875
     19872     19870     19873     19876     19873     19876     19879     19880
     19873     19876     19879     19881     19873     19876     19879     19882
     19874     19873     19876     19877     19874     19873     19876     19878
     19874     19873     19876     19879     19875     19873     19876     19877
     19875     19873     19876     19878     19875     19873     19876     19879
     19876     19879     19882     19883     19876     19879     19882     19884
     19876     19879     19882     19885     19877     19876     19879     19880
     19877     19876     19879     19881     19877     19876     19879     19882
     19878     19876     19879     19880     19878     19876     19879     19881
     19878     19876     19879     19882     19879     19882     19885     19886
     19879     19882     19885     19887     19880     19879     19882     19883
     19880     19879     19882     19884     19880     19879     19882     19885
     19881     19879     19882     19883     19881     19879     19882     19884
     19881     19879     19882     19885     19882     19885     19887     19888
     19882     19885     19887     19889     19883     19882     19885     19886
     19883     19882     19885     19887     19884     19882     19885     19886
     19884     19882     19885     19887     19885     19887     19889     19890
     19885     19887     19889     19891     19885     19887     19889     19892
     19886     19885     19887     19888     19886     19885     19887     19889
     19887     19889     19892     19893     19887     19889     19892     19894
     19887     19889     19892     19895     19888     19887     19889     19890
     19888     19887     19889     19891     19888     19887     19889     19892
     19889     19892     19895     19896     19889     19892     19895     19897
     19889     19892     19895     19898     19890     19889     19892     19893
     19890     19889     19892     19894     19890     19889     19892     19895
     19891     19889     19892     19893     19891     19889     19892     19894
     19891     19889     19892     19895     19892     19895     19898     19899
     19892     19895     19898     19900     19892     19895     19898     19901
     19893     19892     19895     19896     19893     19892     19895     19897
     19893     19892     19895     19898     19894     19892     19895     19896
     19894     19892     19895     19897     19894     19892     19895     19898
     19895     19898     19901     19902     19895     19898     19901     19903
     19895     19898     19901     19904     19896     19895     19898     19899
     19896     19895     19898     19900     19896     19895     19898     19901
     19897     19895     19898     19899     19897     19895     19898     19900
     19897     19895     19898     19901     19898     19901     19904     19905
     19898     19901     19904     19906     19898     19901     19904     19907
     19899     19898     19901     19902     19899     19898     19901     19903
     19899     19898     19901     19904     19900     19898     19901     19902
     19900     19898     19901     19903     19900     19898     19901     19904
     19901     19904     19907     19908     19901     19904     19907     19909
     19901     19904     19907     19910     19902     19901     19904     19905
     19902     19901     19904     19906     19902     19901     19904     19907
     19903     19901     19904     19905     19903     19901     19904     19906
     19903     19901     19904     19907     19904     19907     19910     19911
     19904     19907     19910     19912     19904     19907     19910     19913
     19905     19904     19907     19908     19905     19904     19907     19909
     19905     19904     19907     19910     19906     19904     19907     19908
     19906     19904     19907     19909     19906     19904     19907     19910
     19908     19907     19910     19911     19908     19907     19910     19912
     19908     19907     19910     19913     19909     19907     19910     19911
     19909     19907     19910     19912     19909     19907     19910     19913
     19914     19917     19920     19921     19914     19917     19920     19922
     19914     19917     19920     19923     19915     19914     19917     19918
     19915     19914     19917     19919     19915     19914     19917     19920
     19916     19914     19917     19918     19916     19914     19917     19919
     19916     19914     19917     19920     19917     19920     19923     19924
     19917     19920     19923     19925     19917     19920     19923     19926
     19918     19917     19920     19921     19918     19917     19920     19922
     19918     19917     19920     19923     19919     19917     19920     19921
     19919     19917     19920     19922     19919     19917     19920     19923
     19920     19923     19926     19927     19920     19923     19926     19928
     19920     19923     19926     19929     19921     19920     19923     19924
     19921     19920     19923     19925     19921     19920     19923     19926
     19922     19920     19923     19924     19922     19920     19923     19925
     19922     19920     19923     19926     19923     19926     19929     19930
     19923     19926     19929     19931     19923     19926     19929     19932
     19924     19923     19926     19927     19924     19923     19926     19928
     19924     19923     19926     19929     19925     19923     19926     19927
     19925     19923     19926     19928     19925     19923     19926     19929
     19926     19929     19932     19933     19926     19929     19932     19934
     19927     19926     19929     19930     19927     19926     19929     19931
     19927     19926     19929     19932     19928     19926     19929     19930
     19928     19926     19929     19931     19928     19926     19929     19932
     19929     19932     19934     19935     19929     19932     19934     19936
     19930     19929     19932     19933     19930     19929     19932     19934
     19931     19929     19932     19933     19931     19929     19932     19934
     19932     19934     19936     19937     19932     19934     19936     19938
     19932     19934     19936     19939     19933     19932     19934     19935
     19933     19932     19934     19936     19934     19936     19939     19940
     19934     19936     19939     19941     19934     19936     19939     19942
     19935     19934     19936     19937     19935     19934     19936     19938
     19935     19934     19936     19939     19936     19939     19942     19943
     19936     19939     19942     19944     19936     19939     19942     19945
     19937     19936     19939     19940     19937     19936     19939     19941
     19937     19936     19939     19942     19938     19936     19939     19940
     19938     19936     19939     19941     19938     19936     19939     19942
     19939     19942     19945     19946     19939     19942     19945     19947
     19939     19942     19945     19948     19940     19939     19942     19943
     19940     19939     19942     19944     19940     19939     19942     19945
     19941     19939     19942     19943     19941     19939     19942     19944
     19941     19939     19942     19945     19942     19945     19948     19949
     19942     19945     19948     19950     19942     19945     19948     19951
     19943     19942     19945     19946     19943     19942     19945     19947
     19943     19942     19945     19948     19944     19942     19945     19946
     19944     19942     19945     19947     19944     19942     19945     19948
     19945     19948     19951     19952     19945     19948     19951     19953
     19945     19948     19951     19954     19946     19945     19948     19949
     19946     19945     19948     19950     19946     19945     19948     19951
     19947     19945     19948     19949     19947     19945     19948     19950
     19947     19945     19948     19951     19948     19951     19954     19955
     19948     19951     19954     19956     19948     19951     19954     19957
     19949     19948     19951     19952     19949     19948     19951     19953
     19949     19948     19951     19954     19950     19948     19951     19952
     19950     19948     19951     19953     19950     19948     19951     19954
     19951     19954     19957     19958     19951     19954     19957     19959
     19951     19954     19957     19960     19952     19951     19954     19955
     19952     19951     19954     19956     19952     19951     19954     19957
     19953     19951     19954     19955     19953     19951     19954     19956
     19953     19951     19954     19957     19955     19954     19957     19958
     19955     19954     19957     19959     19955     19954     19957     19960
     19956     19954     19957     19958     19956     19954     19957     19959
     19956     19954     19957     19960     19961     19962     19977     19978
     19961     19962     19977     19979     19961     19962     19977     19983
     19962     19961     19965     19966     19962     19961     19965     19967
     19962     19961     19965     19968     19962     19961     19969     19970
     19962     19961     19969     19971     19962     19961     19969     19972
     19962     19961     19973     19974     19962     19961     19973     19975
     19962     19961     19973     19976     19962     19977     19983     19980
     19963     19962     19961     19965     19963     19962     19961     19969
     19963     19962     19961     19973     19963     19962     19977     19978
     19963     19962     19977     19979     19963     19962     19977     19983
     19964     19962     19961     19965     19964     19962     19961     19969
     19964     19962     19961     19973     19964     19962     19977     19978
     19964     19962     19977     19979     19964     19962     19977     19983
     19965     19961     19962     19977     19965     19961     19969     19970
     19965     19961     19969     19971     19965     19961     19969     19972
     19965     19961     19973     19974     19965     19961     19973     19975
     19965     19961     19973     19976     19966     19965     19961     19969
     19966     19965     19961     19973     19967     19965     19961     19969
     19967     19965     19961     19973     19968     19965     19961     19969
     19968     19965     19961     19973     19969     19961     19962     19977
     19969     19961     19973     19974     19969     19961     19973     19975
     19969     19961     19973     19976     19970     19969     19961     19973
     19971     19969     19961     19973     19972     19969     19961     19973
     19973     19961     19962     19977     19977     19983     19980     19981
     19977     19983     19980     19982     19977     19983     19980     19984
     19978     19977     19983     19980     19979     19977     19983     19980
     19980     19984     19985     19986     19980     19984     19985     19987
     19980     19984     19985     19988     19981     19980     19984     19985
     19982     19980     19984     19985     19983     19980     19984     19985
     19984     19985     19988     19989     19984     19985     19988     19990
     19984     19985     19988     19996     19985     19988     19990     19991
     19985     19988     19996     19997     19985     19988     19996     19998
     19985     19988     19996     19999     19986     19985     19988     19989
     19986     19985     19988     19990     19986     19985     19988     19996
     19987     19985     19988     19989     19987     19985     19988     19990
     19987     19985     19988     19996     19988     19990     19991     19992
     19988     19990     19991     19993     19988     19996     19999     20000
     19989     19988     19990     19991     19989     19988     19996     19997
     19989     19988     19996     19998     19989     19988     19996     19999
     19990     19988     19996     19997     19990     19988     19996     19998
     19990     19988     19996     19999     19990     19991     19993     19994
     19990     19991     19993     19995     19990     19991     19993     20005
     19991     19990     19988     19996     19991     19993     20005     20006
     19991     19993     20005     20007     19991     19993     20005     20008
     19992     19991     19993     19994     19992     19991     19993     19995
     19992     19991     19993     20005     19993     20005     20008     20009
     19993     20005     20008     20010     19993     20005     20008     20011
     19994     19993     20005     20006     19994     19993     20005     20007
     19994     19993     20005     20008     19995     19993     20005     20006
     19995     19993     20005     20007     19995     19993     20005     20008
     19996     19999     20000     20001     19996     19999     20000     20002
     19997     19996     19999     20000     19998     19996     19999     20000
     19999     20000     20002     20003     19999     20000     20002     20004
     19999     20000     20002     20052     20000     20002     20052     20053
     20000     20002     20052     20054     20000     20002     20052     20055
     20001     20000     20002     20003     20001     20000     20002     20004
     20001     20000     20002     20052     20002     20052     20055     20056
     20002     20052     20055     20057     20002     20052     20055     20058
     20003     20002     20052     20053     20003     20002     20052     20054
     20003     20002     20052     20055     20004     20002     20052     20053
     20004     20002     20052     20054     20004     20002     20052     20055
     20005     20008     20011     20012     20005     20008     20011     20013
     20005     20008     20011     20014     20006     20005     20008     20009
     20006     20005     20008     20010     20006     20005     20008     20011
     20007     20005     20008     20009     20007     20005     20008     20010
     20007     20005     20008     20011     20008     20011     20014     20015
     20008     20011     20014     20016     20008     20011     20014     20017
     20009     20008     20011     20012     20009     20008     20011     20013
     20009     20008     20011     20014     20010     20008     20011     20012
     20010     20008     20011     20013     20010     20008     20011     20014
     20011     20014     20017     20018     20011     20014     20017     20019
     20011     20014     20017     20020     20012     20011     20014     20015
     20012     20011     20014     20016     20012     20011     20014     20017
     20013     20011     20014     20015     20013     20011     20014     20016
     20013     20011     20014     20017     20014     20017     20020     20021
     20014     20017     20020     20022     20014     20017     20020     20023
     20015     20014     20017     20018     20015     20014     20017     20019
     20015     20014     20017     20020     20016     20014     20017     20018
     20016     20014     20017     20019     20016     20014     20017     20020
     20017     20020     20023     20024     20017     20020     20023     20025
     20018     20017     20020     20021     20018     20017     20020     20022
     20018     20017     20020     20023     20019     20017     20020     20021
     20019     20017     20020     20022     20019     20017     20020     20023
     20020     20023     20025     20026     20020     20023     20025     20027
     20021     20020     20023     20024     20021     20020     20023     20025
     20022     20020     20023     20024     20022     20020     20023     20025
     20023     20025     20027     20028     20023     20025     20027     20029
     20023     20025     20027     20030     20024     20023     20025     20026
     20024     20023     20025     20027     20025     20027     20030     20031
     20025     20027     20030     20032     20025     20027     20030     20033
     20026     20025     20027     20028     20026     20025     20027     20029
     20026     20025     20027     20030     20027     20030     20033     20034
     20027     20030     20033     20035     20027     20030     20033     20036
     20028     20027     20030     20031     20028     20027     20030     20032
     20028     20027     20030     20033     20029     20027     20030     20031
     20029     20027     20030     20032     20029     20027     20030     20033
     20030     20033     20036     20037     20030     20033     20036     20038
     20030     20033     20036     20039     20031     20030     20033     20034
     20031     20030     20033     20035     20031     20030     20033     20036
     20032     20030     20033     20034     20032     20030     20033     20035
     20032     20030     20033     20036     20033     20036     20039     20040
     20033     20036     20039     20041     20033     20036     20039     20042
     20034     20033     20036     20037     20034     20033     20036     20038
     20034     20033     20036     20039     20035     20033     20036     20037
     20035     20033     20036     20038     20035     20033     20036     20039
     20036     20039     20042     20043     20036     20039     20042     20044
     20036     20039     20042     20045     20037     20036     20039     20040
     20037     20036     20039     20041     20037     20036     20039     20042
     20038     20036     20039     20040     20038     20036     20039     20041
     20038     20036     20039     20042     20039     20042     20045     20046
     20039     20042     20045     20047     20039     20042     20045     20048
     20040     20039     20042     20043     20040     20039     20042     20044
     20040     20039     20042     20045     20041     20039     20042     20043
     20041     20039     20042     20044     20041     20039     20042     20045
     20042     20045     20048     20049     20042     20045     20048     20050
     20042     20045     20048     20051     20043     20042     20045     20046
     20043     20042     20045     20047     20043     20042     20045     20048
     20044     20042     20045     20046     20044     20042     20045     20047
     20044     20042     20045     20048     20046     20045     20048     20049
     20046     20045     20048     20050     20046     20045     20048     20051
     20047     20045     20048     20049     20047     20045     20048     20050
     20047     20045     20048     20051     20052     20055     20058     20059
     20052     20055     20058     20060     20052     20055     20058     20061
     20053     20052     20055     20056     20053     20052     20055     20057
     20053     20052     20055     20058     20054     20052     20055     20056
     20054     20052     20055     20057     20054     20052     20055     20058
     20055     20058     20061     20062     20055     20058     20061     20063
     20055     20058     20061     20064     20056     20055     20058     20059
     20056     20055     20058     20060     20056     20055     20058     20061
     20057     20055     20058     20059     20057     20055     20058     20060
     20057     20055     20058     20061     20058     20061     20064     20065
     20058     20061     20064     20066     20058     20061     20064     20067
     20059     20058     20061     20062     20059     20058     20061     20063
     20059     20058     20061     20064     20060     20058     20061     20062
     20060     20058     20061     20063     20060     20058     20061     20064
     20061     20064     20067     20068     20061     20064     20067     20069
     20061     20064     20067     20070     20062     20061     20064     20065
     20062     20061     20064     20066     20062     20061     20064     20067
     20063     20061     20064     20065     20063     20061     20064     20066
     20063     20061     20064     20067     20064     20067     20070     20071
     20064     20067     20070     20072     20065     20064     20067     20068
     20065     20064     20067     20069     20065     20064     20067     20070
     20066     20064     20067     20068     20066     20064     20067     20069
     20066     20064     20067     20070     20067     20070     20072     20073
     20067     20070     20072     20074     20068     20067     20070     20071
     20068     20067     20070     20072     20069     20067     20070     20071
     20069     20067     20070     20072     20070     20072     20074     20075
     20070     20072     20074     20076     20070     20072     20074     20077
     20071     20070     20072     20073     20071     20070     20072     20074
     20072     20074     20077     20078     20072     20074     20077     20079
     20072     20074     20077     20080     20073     20072     20074     20075
     20073     20072     20074     20076     20073     20072     20074     20077
     20074     20077     20080     20081     20074     20077     20080     20082
     20074     20077     20080     20083     20075     20074     20077     20078
     20075     20074     20077     20079     20075     20074     20077     20080
     20076     20074     20077     20078     20076     20074     20077     20079
     20076     20074     20077     20080     20077     20080     20083     20084
     20077     20080     20083     20085     20077     20080     20083     20086
     20078     20077     20080     20081     20078     20077     20080     20082
     20078     20077     20080     20083     20079     20077     20080     20081
     20079     20077     20080     20082     20079     20077     20080     20083
     20080     20083     20086     20087     20080     20083     20086     20088
     20080     20083     20086     20089     20081     20080     20083     20084
     20081     20080     20083     20085     20081     20080     20083     20086
     20082     20080     20083     20084     20082     20080     20083     20085
     20082     20080     20083     20086     20083     20086     20089     20090
     20083     20086     20089     20091     20083     20086     20089     20092
     20084     20083     20086     20087     20084     20083     20086     20088
     20084     20083     20086     20089     20085     20083     20086     20087
     20085     20083     20086     20088     20085     20083     20086     20089
     20086     20089     20092     20093     20086     20089     20092     20094
     20086     20089     20092     20095     20087     20086     20089     20090
     20087     20086     20089     20091     20087     20086     20089     20092
     20088     20086     20089     20090     20088     20086     20089     20091
     20088     20086     20089     20092     20089     20092     20095     20096
     20089     20092     20095     20097     20089     20092     20095     20098
     20090     20089     20092     20093     20090     20089     20092     20094
     20090     20089     20092     20095     20091     20089     20092     20093
     20091     20089     20092     20094     20091     20089     20092     20095
     20093     20092     20095     20096     20093     20092     20095     20097
     20093     20092     20095     20098     20094     20092     20095     20096
     20094     20092     20095     20097     20094     20092     20095     20098
     20099     20103     20106     20107     20099     20103     20106     20108
     20099     20103     20106     20113     20100     20099     20103     20104
     20100     20099     20103     20105     20100     20099     20103     20106
     20101     20099     20103     20104     20101     20099     20103     20105
     20101     20099     20103     20106     20102     20099     20103     20104
     20102     20099     20103     20105     20102     20099     20103     20106
     20103     20106     20113     20109     20104     20103     20106     20107
     20104     20103     20106     20108     20104     20103     20106     20113
     20105     20103     20106     20107     20105     20103     20106     20108
     20105     20103     20106     20113     20106     20113     20109     20110
     20106     20113     20109     20111     20106     20113     20109     20112
     20107     20106     20113     20109     20108     20106     20113     20109
     20109     20112     20114     20115     20109     20112     20114     20116
     20109     20112     20114     20117     20110     20109     20112     20114
     20111     20109     20112     20114     20112     20114     20117     20118
     20112     20114     20117     20119     20112     20114     20117     20125
     20113     20109     20112     20114     20114     20117     20119     20120
     20114     20117     20125     20126     20114     20117     20125     20127
     20114     20117     20125     20128     20115     20114     20117     20118
     20115     20114     20117     20119     20115     20114     20117     20125
     20116     20114     20117     20118     20116     20114     20117     20119
     20116     20114     20117     20125     20117     20119     20120     20121
     20117     20119     20120     20122     20117     20125     20128     20129
     20118     20117     20119     20120     20118     20117     20125     20126
     20118     20117     20125     20127     20118     20117     20125     20128
     20119     20117     20125     20126     20119     20117     20125     20127
     20119     20117     20125     20128     20119     20120     20122     20123
     20119     20120     20122     20124     20119     20120     20122     20134
     20120     20119     20117     20125     20120     20122     20134     20135
     20120     20122     20134     20136     20120     20122     20134     20137
     20121     20120     20122     20123     20121     20120     20122     20124
     20121     20120     20122     20134     20122     20134     20137     20138
     20122     20134     20137     20139     20122     20134     20137     20140
     20123     20122     20134     20135     20123     20122     20134     20136
     20123     20122     20134     20137     20124     20122     20134     20135
     20124     20122     20134     20136     20124     20122     20134     20137
     20125     20128     20129     20130     20125     20128     20129     20131
     20126     20125     20128     20129     20127     20125     20128     20129
     20128     20129     20131     20132     20128     20129     20131     20133
     20128     20129     20131     20181     20129     20131     20181     20182
     20129     20131     20181     20183     20129     20131     20181     20184
     20130     20129     20131     20132     20130     20129     20131     20133
     20130     20129     20131     20181     20131     20181     20184     20185
     20131     20181     20184     20186     20131     20181     20184     20187
     20132     20131     20181     20182     20132     20131     20181     20183
     20132     20131     20181     20184     20133     20131     20181     20182
     20133     20131     20181     20183     20133     20131     20181     20184
     20134     20137     20140     20141     20134     20137     20140     20142
     20134     20137     20140     20143     20135     20134     20137     20138
     20135     20134     20137     20139     20135     20134     20137     20140
     20136     20134     20137     20138     20136     20134     20137     20139
     20136     20134     20137     20140     20137     20140     20143     20144
     20137     20140     20143     20145     20137     20140     20143     20146
     20138     20137     20140     20141     20138     20137     20140     20142
     20138     20137     20140     20143     20139     20137     20140     20141
     20139     20137     20140     20142     20139     20137     20140     20143
     20140     20143     20146     20147     20140     20143     20146     20148
     20140     20143     20146     20149     20141     20140     20143     20144
     20141     20140     20143     20145     20141     20140     20143     20146
     20142     20140     20143     20144     20142     20140     20143     20145
     20142     20140     20143     20146     20143     20146     20149     20150
     20143     20146     20149     20151     20143     20146     20149     20152
     20144     20143     20146     20147     20144     20143     20146     20148
     20144     20143     20146     20149     20145     20143     20146     20147
     20145     20143     20146     20148     20145     20143     20146     20149
     20146     20149     20152     20153     20146     20149     20152     20154
     20147     20146     20149     20150     20147     20146     20149     20151
     20147     20146     20149     20152     20148     20146     20149     20150
     20148     20146     20149     20151     20148     20146     20149     20152
     20149     20152     20154     20155     20149     20152     20154     20156
     20150     20149     20152     20153     20150     20149     20152     20154
     20151     20149     20152     20153     20151     20149     20152     20154
     20152     20154     20156     20157     20152     20154     20156     20158
     20152     20154     20156     20159     20153     20152     20154     20155
     20153     20152     20154     20156     20154     20156     20159     20160
     20154     20156     20159     20161     20154     20156     20159     20162
     20155     20154     20156     20157     20155     20154     20156     20158
     20155     20154     20156     20159     20156     20159     20162     20163
     20156     20159     20162     20164     20156     20159     20162     20165
     20157     20156     20159     20160     20157     20156     20159     20161
     20157     20156     20159     20162     20158     20156     20159     20160
     20158     20156     20159     20161     20158     20156     20159     20162
     20159     20162     20165     20166     20159     20162     20165     20167
     20159     20162     20165     20168     20160     20159     20162     20163
     20160     20159     20162     20164     20160     20159     20162     20165
     20161     20159     20162     20163     20161     20159     20162     20164
     20161     20159     20162     20165     20162     20165     20168     20169
     20162     20165     20168     20170     20162     20165     20168     20171
     20163     20162     20165     20166     20163     20162     20165     20167
     20163     20162     20165     20168     20164     20162     20165     20166
     20164     20162     20165     20167     20164     20162     20165     20168
     20165     20168     20171     20172     20165     20168     20171     20173
     20165     20168     20171     20174     20166     20165     20168     20169
     20166     20165     20168     20170     20166     20165     20168     20171
     20167     20165     20168     20169     20167     20165     20168     20170
     20167     20165     20168     20171     20168     20171     20174     20175
     20168     20171     20174     20176     20168     20171     20174     20177
     20169     20168     20171     20172     20169     20168     20171     20173
     20169     20168     20171     20174     20170     20168     20171     20172
     20170     20168     20171     20173     20170     20168     20171     20174
     20171     20174     20177     20178     20171     20174     20177     20179
     20171     20174     20177     20180     20172     20171     20174     20175
     20172     20171     20174     20176     20172     20171     20174     20177
     20173     20171     20174     20175     20173     20171     20174     20176
     20173     20171     20174     20177     20175     20174     20177     20178
     20175     20174     20177     20179     20175     20174     20177     20180
     20176     20174     20177     20178     20176     20174     20177     20179
     20176     20174     20177     20180     20181     20184     20187     20188
     20181     20184     20187     20189     20181     20184     20187     20190
     20182     20181     20184     20185     20182     20181     20184     20186
     20182     20181     20184     20187     20183     20181     20184     20185
     20183     20181     20184     20186     20183     20181     20184     20187
     20184     20187     20190     20191     20184     20187     20190     20192
     20184     20187     20190     20193     20185     20184     20187     20188
     20185     20184     20187     20189     20185     20184     20187     20190
     20186     20184     20187     20188     20186     20184     20187     20189
     20186     20184     20187     20190     20187     20190     20193     20194
     20187     20190     20193     20195     20187     20190     20193     20196
     20188     20187     20190     20191     20188     20187     20190     20192
     20188     20187     20190     20193     20189     20187     20190     20191
     20189     20187     20190     20192     20189     20187     20190     20193
     20190     20193     20196     20197     20190     20193     20196     20198
     20190     20193     20196     20199     20191     20190     20193     20194
     20191     20190     20193     20195     20191     20190     20193     20196
     20192     20190     20193     20194     20192     20190     20193     20195
     20192     20190     20193     20196     20193     20196     20199     20200
     20193     20196     20199     20201     20194     20193     20196     20197
     20194     20193     20196     20198     20194     20193     20196     20199
     20195     20193     20196     20197     20195     20193     20196     20198
     20195     20193     20196     20199     20196     20199     20201     20202
     20196     20199     20201     20203     20197     20196     20199     20200
     20197     20196     20199     20201     20198     20196     20199     20200
     20198     20196     20199     20201     20199     20201     20203     20204
     20199     20201     20203     20205     20199     20201     20203     20206
     20200     20199     20201     20202     20200     20199     20201     20203
     20201     20203     20206     20207     20201     20203     20206     20208
     20201     20203     20206     20209     20202     20201     20203     20204
     20202     20201     20203     20205     20202     20201     20203     20206
     20203     20206     20209     20210     20203     20206     20209     20211
     20203     20206     20209     20212     20204     20203     20206     20207
     20204     20203     20206     20208     20204     20203     20206     20209
     20205     20203     20206     20207     20205     20203     20206     20208
     20205     20203     20206     20209     20206     20209     20212     20213
     20206     20209     20212     20214     20206     20209     20212     20215
     20207     20206     20209     20210     20207     20206     20209     20211
     20207     20206     20209     20212     20208     20206     20209     20210
     20208     20206     20209     20211     20208     20206     20209     20212
     20209     20212     20215     20216     20209     20212     20215     20217
     20209     20212     20215     20218     20210     20209     20212     20213
     20210     20209     20212     20214     20210     20209     20212     20215
     20211     20209     20212     20213     20211     20209     20212     20214
     20211     20209     20212     20215     20212     20215     20218     20219
     20212     20215     20218     20220     20212     20215     20218     20221
     20213     20212     20215     20216     20213     20212     20215     20217
     20213     20212     20215     20218     20214     20212     20215     20216
     20214     20212     20215     20217     20214     20212     20215     20218
     20215     20218     20221     20222     20215     20218     20221     20223
     20215     20218     20221     20224     20216     20215     20218     20219
     20216     20215     20218     20220     20216     20215     20218     20221
     20217     20215     20218     20219     20217     20215     20218     20220
     20217     20215     20218     20221     20218     20221     20224     20225
     20218     20221     20224     20226     20218     20221     20224     20227
     20219     20218     20221     20222     20219     20218     20221     20223
     20219     20218     20221     20224     20220     20218     20221     20222
     20220     20218     20221     20223     20220     20218     20221     20224
     20222     20221     20224     20225     20222     20221     20224     20226
     20222     20221     20224     20227     20223     20221     20224     20225
     20223     20221     20224     20226     20223     20221     20224     20227
     20228     20232     20235     20236     20228     20232     20235     20237
     20228     20232     20235     20242     20229     20228     20232     20233
     20229     20228     20232     20234     20229     20228     20232     20235
     20230     20228     20232     20233     20230     20228     20232     20234
     20230     20228     20232     20235     20231     20228     20232     20233
     20231     20228     20232     20234     20231     20228     20232     20235
     20232     20235     20242     20238     20233     20232     20235     20236
     20233     20232     20235     20237     20233     20232     20235     20242
     20234     20232     20235     20236     20234     20232     20235     20237
     20234     20232     20235     20242     20235     20242     20238     20239
     20235     20242     20238     20240     20235     20242     20238     20241
     20236     20235     20242     20238     20237     20235     20242     20238
     20238     20241     20243     20244     20238     20241     20243     20245
     20238     20241     20243     20246     20239     20238     20241     20243
     20240     20238     20241     20243     20241     20243     20246     20247
     20241     20243     20246     20248     20241     20243     20246     20254
     20242     20238     20241     20243     20243     20246     20248     20249
     20243     20246     20254     20255     20243     20246     20254     20256
     20243     20246     20254     20257     20244     20243     20246     20247
     20244     20243     20246     20248     20244     20243     20246     20254
     20245     20243     20246     20247     20245     20243     20246     20248
     20245     20243     20246     20254     20246     20248     20249     20250
     20246     20248     20249     20251     20246     20254     20257     20258
     20247     20246     20248     20249     20247     20246     20254     20255
     20247     20246     20254     20256     20247     20246     20254     20257
     20248     20246     20254     20255     20248     20246     20254     20256
     20248     20246     20254     20257     20248     20249     20251     20252
     20248     20249     20251     20253     20248     20249     20251     20263
     20249     20248     20246     20254     20249     20251     20263     20264
     20249     20251     20263     20265     20249     20251     20263     20266
     20250     20249     20251     20252     20250     20249     20251     20253
     20250     20249     20251     20263     20251     20263     20266     20267
     20251     20263     20266     20268     20251     20263     20266     20269
     20252     20251     20263     20264     20252     20251     20263     20265
     20252     20251     20263     20266     20253     20251     20263     20264
     20253     20251     20263     20265     20253     20251     20263     20266
     20254     20257     20258     20259     20254     20257     20258     20260
     20255     20254     20257     20258     20256     20254     20257     20258
     20257     20258     20260     20261     20257     20258     20260     20262
     20257     20258     20260     20310     20258     20260     20310     20311
     20258     20260     20310     20312     20258     20260     20310     20313
     20259     20258     20260     20261     20259     20258     20260     20262
     20259     20258     20260     20310     20260     20310     20313     20314
     20260     20310     20313     20315     20260     20310     20313     20316
     20261     20260     20310     20311     20261     20260     20310     20312
     20261     20260     20310     20313     20262     20260     20310     20311
     20262     20260     20310     20312     20262     20260     20310     20313
     20263     20266     20269     20270     20263     20266     20269     20271
     20263     20266     20269     20272     20264     20263     20266     20267
     20264     20263     20266     20268     20264     20263     20266     20269
     20265     20263     20266     20267     20265     20263     20266     20268
     20265     20263     20266     20269     20266     20269     20272     20273
     20266     20269     20272     20274     20266     20269     20272     20275
     20267     20266     20269     20270     20267     20266     20269     20271
     20267     20266     20269     20272     20268     20266     20269     20270
     20268     20266     20269     20271     20268     20266     20269     20272
     20269     20272     20275     20276     20269     20272     20275     20277
     20269     20272     20275     20278     20270     20269     20272     20273
     20270     20269     20272     20274     20270     20269     20272     20275
     20271     20269     20272     20273     20271     20269     20272     20274
     20271     20269     20272     20275     20272     20275     20278     20279
     20272     20275     20278     20280     20272     20275     20278     20281
     20273     20272     20275     20276     20273     20272     20275     20277
     20273     20272     20275     20278     20274     20272     20275     20276
     20274     20272     20275     20277     20274     20272     20275     20278
     20275     20278     20281     20282     20275     20278     20281     20283
     20276     20275     20278     20279     20276     20275     20278     20280
     20276     20275     20278     20281     20277     20275     20278     20279
     20277     20275     20278     20280     20277     20275     20278     20281
     20278     20281     20283     20284     20278     20281     20283     20285
     20279     20278     20281     20282     20279     20278     20281     20283
     20280     20278     20281     20282     20280     20278     20281     20283
     20281     20283     20285     20286     20281     20283     20285     20287
     20281     20283     20285     20288     20282     20281     20283     20284
     20282     20281     20283     20285     20283     20285     20288     20289
     20283     20285     20288     20290     20283     20285     20288     20291
     20284     20283     20285     20286     20284     20283     20285     20287
     20284     20283     20285     20288     20285     20288     20291     20292
     20285     20288     20291     20293     20285     20288     20291     20294
     20286     20285     20288     20289     20286     20285     20288     20290
     20286     20285     20288     20291     20287     20285     20288     20289
     20287     20285     20288     20290     20287     20285     20288     20291
     20288     20291     20294     20295     20288     20291     20294     20296
     20288     20291     20294     20297     20289     20288     20291     20292
     20289     20288     20291     20293     20289     20288     20291     20294
     20290     20288     20291     20292     20290     20288     20291     20293
     20290     20288     20291     20294     20291     20294     20297     20298
     20291     20294     20297     20299     20291     20294     20297     20300
     20292     20291     20294     20295     20292     20291     20294     20296
     20292     20291     20294     20297     20293     20291     20294     20295
     20293     20291     20294     20296     20293     20291     20294     20297
     20294     20297     20300     20301     20294     20297     20300     20302
     20294     20297     20300     20303     20295     20294     20297     20298
     20295     20294     20297     20299     20295     20294     20297     20300
     20296     20294     20297     20298     20296     20294     20297     20299
     20296     20294     20297     20300     20297     20300     20303     20304
     20297     20300     20303     20305     20297     20300     20303     20306
     20298     20297     20300     20301     20298     20297     20300     20302
     20298     20297     20300     20303     20299     20297     20300     20301
     20299     20297     20300     20302     20299     20297     20300     20303
     20300     20303     20306     20307     20300     20303     20306     20308
     20300     20303     20306     20309     20301     20300     20303     20304
     20301     20300     20303     20305     20301     20300     20303     20306
     20302     20300     20303     20304     20302     20300     20303     20305
     20302     20300     20303     20306     20304     20303     20306     20307
     20304     20303     20306     20308     20304     20303     20306     20309
     20305     20303     20306     20307     20305     20303     20306     20308
     20305     20303     20306     20309     20310     20313     20316     20317
     20310     20313     20316     20318     20310     20313     20316     20319
     20311     20310     20313     20314     20311     20310     20313     20315
     20311     20310     20313     20316     20312     20310     20313     20314
     20312     20310     20313     20315     20312     20310     20313     20316
     20313     20316     20319     20320     20313     20316     20319     20321
     20313     20316     20319     20322     20314     20313     20316     20317
     20314     20313     20316     20318     20314     20313     20316     20319
     20315     20313     20316     20317     20315     20313     20316     20318
     20315     20313     20316     20319     20316     20319     20322     20323
     20316     20319     20322     20324     20316     20319     20322     20325
     20317     20316     20319     20320     20317     20316     20319     20321
     20317     20316     20319     20322     20318     20316     20319     20320
     20318     20316     20319     20321     20318     20316     20319     20322
     20319     20322     20325     20326     20319     20322     20325     20327
     20319     20322     20325     20328     20320     20319     20322     20323
     20320     20319     20322     20324     20320     20319     20322     20325
     20321     20319     20322     20323     20321     20319     20322     20324
     20321     20319     20322     20325     20322     20325     20328     20329
     20322     20325     20328     20330     20323     20322     20325     20326
     20323     20322     20325     20327     20323     20322     20325     20328
     20324     20322     20325     20326     20324     20322     20325     20327
     20324     20322     20325     20328     20325     20328     20330     20331
     20325     20328     20330     20332     20326     20325     20328     20329
     20326     20325     20328     20330     20327     20325     20328     20329
     20327     20325     20328     20330     20328     20330     20332     20333
     20328     20330     20332     20334     20328     20330     20332     20335
     20329     20328     20330     20331     20329     20328     20330     20332
     20330     20332     20335     20336     20330     20332     20335     20337
     20330     20332     20335     20338     20331     20330     20332     20333
     20331     20330     20332     20334     20331     20330     20332     20335
     20332     20335     20338     20339     20332     20335     20338     20340
     20332     20335     20338     20341     20333     20332     20335     20336
     20333     20332     20335     20337     20333     20332     20335     20338
     20334     20332     20335     20336     20334     20332     20335     20337
     20334     20332     20335     20338     20335     20338     20341     20342
     20335     20338     20341     20343     20335     20338     20341     20344
     20336     20335     20338     20339     20336     20335     20338     20340
     20336     20335     20338     20341     20337     20335     20338     20339
     20337     20335     20338     20340     20337     20335     20338     20341
     20338     20341     20344     20345     20338     20341     20344     20346
     20338     20341     20344     20347     20339     20338     20341     20342
     20339     20338     20341     20343     20339     20338     20341     20344
     20340     20338     20341     20342     20340     20338     20341     20343
     20340     20338     20341     20344     20341     20344     20347     20348
     20341     20344     20347     20349     20341     20344     20347     20350
     20342     20341     20344     20345     20342     20341     20344     20346
     20342     20341     20344     20347     20343     20341     20344     20345
     20343     20341     20344     20346     20343     20341     20344     20347
     20344     20347     20350     20351     20344     20347     20350     20352
     20344     20347     20350     20353     20345     20344     20347     20348
     20345     20344     20347     20349     20345     20344     20347     20350
     20346     20344     20347     20348     20346     20344     20347     20349
     20346     20344     20347     20350     20347     20350     20353     20354
     20347     20350     20353     20355     20347     20350     20353     20356
     20348     20347     20350     20351     20348     20347     20350     20352
     20348     20347     20350     20353     20349     20347     20350     20351
     20349     20347     20350     20352     20349     20347     20350     20353
     20351     20350     20353     20354     20351     20350     20353     20355
     20351     20350     20353     20356     20352     20350     20353     20354
     20352     20350     20353     20355     20352     20350     20353     20356
     20357     20358     20373     20374     20357     20358     20373     20375
     20357     20358     20373     20379     20358     20357     20361     20362
     20358     20357     20361     20363     20358     20357     20361     20364
     20358     20357     20365     20366     20358     20357     20365     20367
     20358     20357     20365     20368     20358     20357     20369     20370
     20358     20357     20369     20371     20358     20357     20369     20372
     20358     20373     20379     20376     20359     20358     20357     20361
     20359     20358     20357     20365     20359     20358     20357     20369
     20359     20358     20373     20374     20359     20358     20373     20375
     20359     20358     20373     20379     20360     20358     20357     20361
     20360     20358     20357     20365     20360     20358     20357     20369
     20360     20358     20373     20374     20360     20358     20373     20375
     20360     20358     20373     20379     20361     20357     20358     20373
     20361     20357     20365     20366     20361     20357     20365     20367
     20361     20357     20365     20368     20361     20357     20369     20370
     20361     20357     20369     20371     20361     20357     20369     20372
     20362     20361     20357     20365     20362     20361     20357     20369
     20363     20361     20357     20365     20363     20361     20357     20369
     20364     20361     20357     20365     20364     20361     20357     20369
     20365     20357     20358     20373     20365     20357     20369     20370
     20365     20357     20369     20371     20365     20357     20369     20372
     20366     20365     20357     20369     20367     20365     20357     20369
     20368     20365     20357     20369     20369     20357     20358     20373
     20373     20379     20376     20377     20373     20379     20376     20378
     20373     20379     20376     20380     20374     20373     20379     20376
     20375     20373     20379     20376     20376     20380     20381     20382
     20376     20380     20381     20383     20376     20380     20381     20384
     20377     20376     20380     20381     20378     20376     20380     20381
     20379     20376     20380     20381     20380     20381     20384     20385
     20380     20381     20384     20386     20380     20381     20384     20392
     20381     20384     20386     20387     20381     20384     20392     20393
     20381     20384     20392     20394     20381     20384     20392     20395
     20382     20381     20384     20385     20382     20381     20384     20386
     20382     20381     20384     20392     20383     20381     20384     20385
     20383     20381     20384     20386     20383     20381     20384     20392
     20384     20386     20387     20388     20384     20386     20387     20389
     20384     20392     20395     20396     20385     20384     20386     20387
     20385     20384     20392     20393     20385     20384     20392     20394
     20385     20384     20392     20395     20386     20384     20392     20393
     20386     20384     20392     20394     20386     20384     20392     20395
     20386     20387     20389     20390     20386     20387     20389     20391
     20386     20387     20389     20401     20387     20386     20384     20392
     20387     20389     20401     20402     20387     20389     20401     20403
     20387     20389     20401     20404     20388     20387     20389     20390
     20388     20387     20389     20391     20388     20387     20389     20401
     20389     20401     20404     20405     20389     20401     20404     20406
     20389     20401     20404     20407     20390     20389     20401     20402
     20390     20389     20401     20403     20390     20389     20401     20404
     20391     20389     20401     20402     20391     20389     20401     20403
     20391     20389     20401     20404     20392     20395     20396     20397
     20392     20395     20396     20398     20393     20392     20395     20396
     20394     20392     20395     20396     20395     20396     20398     20399
     20395     20396     20398     20400     20395     20396     20398     20448
     20396     20398     20448     20449     20396     20398     20448     20450
     20396     20398     20448     20451     20397     20396     20398     20399
     20397     20396     20398     20400     20397     20396     20398     20448
     20398     20448     20451     20452     20398     20448     20451     20453
     20398     20448     20451     20454     20399     20398     20448     20449
     20399     20398     20448     20450     20399     20398     20448     20451
     20400     20398     20448     20449     20400     20398     20448     20450
     20400     20398     20448     20451     20401     20404     20407     20408
     20401     20404     20407     20409     20401     20404     20407     20410
     20402     20401     20404     20405     20402     20401     20404     20406
     20402     20401     20404     20407     20403     20401     20404     20405
     20403     20401     20404     20406     20403     20401     20404     20407
     20404     20407     20410     20411     20404     20407     20410     20412
     20404     20407     20410     20413     20405     20404     20407     20408
     20405     20404     20407     20409     20405     20404     20407     20410
     20406     20404     20407     20408     20406     20404     20407     20409
     20406     20404     20407     20410     20407     20410     20413     20414
     20407     20410     20413     20415     20407     20410     20413     20416
     20408     20407     20410     20411     20408     20407     20410     20412
     20408     20407     20410     20413     20409     20407     20410     20411
     20409     20407     20410     20412     20409     20407     20410     20413
     20410     20413     20416     20417     20410     20413     20416     20418
     20410     20413     20416     20419     20411     20410     20413     20414
     20411     20410     20413     20415     20411     20410     20413     20416
     20412     20410     20413     20414     20412     20410     20413     20415
     20412     20410     20413     20416     20413     20416     20419     20420
     20413     20416     20419     20421     20414     20413     20416     20417
     20414     20413     20416     20418     20414     20413     20416     20419
     20415     20413     20416     20417     20415     20413     20416     20418
     20415     20413     20416     20419     20416     20419     20421     20422
     20416     20419     20421     20423     20417     20416     20419     20420
     20417     20416     20419     20421     20418     20416     20419     20420
     20418     20416     20419     20421     20419     20421     20423     20424
     20419     20421     20423     20425     20419     20421     20423     20426
     20420     20419     20421     20422     20420     20419     20421     20423
     20421     20423     20426     20427     20421     20423     20426     20428
     20421     20423     20426     20429     20422     20421     20423     20424
     20422     20421     20423     20425     20422     20421     20423     20426
     20423     20426     20429     20430     20423     20426     20429     20431
     20423     20426     20429     20432     20424     20423     20426     20427
     20424     20423     20426     20428     20424     20423     20426     20429
     20425     20423     20426     20427     20425     20423     20426     20428
     20425     20423     20426     20429     20426     20429     20432     20433
     20426     20429     20432     20434     20426     20429     20432     20435
     20427     20426     20429     20430     20427     20426     20429     20431
     20427     20426     20429     20432     20428     20426     20429     20430
     20428     20426     20429     20431     20428     20426     20429     20432
     20429     20432     20435     20436     20429     20432     20435     20437
     20429     20432     20435     20438     20430     20429     20432     20433
     20430     20429     20432     20434     20430     20429     20432     20435
     20431     20429     20432     20433     20431     20429     20432     20434
     20431     20429     20432     20435     20432     20435     20438     20439
     20432     20435     20438     20440     20432     20435     20438     20441
     20433     20432     20435     20436     20433     20432     20435     20437
     20433     20432     20435     20438     20434     20432     20435     20436
     20434     20432     20435     20437     20434     20432     20435     20438
     20435     20438     20441     20442     20435     20438     20441     20443
     20435     20438     20441     20444     20436     20435     20438     20439
     20436     20435     20438     20440     20436     20435     20438     20441
     20437     20435     20438     20439     20437     20435     20438     20440
     20437     20435     20438     20441     20438     20441     20444     20445
     20438     20441     20444     20446     20438     20441     20444     20447
     20439     20438     20441     20442     20439     20438     20441     20443
     20439     20438     20441     20444     20440     20438     20441     20442
     20440     20438     20441     20443     20440     20438     20441     20444
     20442     20441     20444     20445     20442     20441     20444     20446
     20442     20441     20444     20447     20443     20441     20444     20445
     20443     20441     20444     20446     20443     20441     20444     20447
     20448     20451     20454     20455     20448     20451     20454     20456
     20448     20451     20454     20457     20449     20448     20451     20452
     20449     20448     20451     20453     20449     20448     20451     20454
     20450     20448     20451     20452     20450     20448     20451     20453
     20450     20448     20451     20454     20451     20454     20457     20458
     20451     20454     20457     20459     20451     20454     20457     20460
     20452     20451     20454     20455     20452     20451     20454     20456
     20452     20451     20454     20457     20453     20451     20454     20455
     20453     20451     20454     20456     20453     20451     20454     20457
     20454     20457     20460     20461     20454     20457     20460     20462
     20454     20457     20460     20463     20455     20454     20457     20458
     20455     20454     20457     20459     20455     20454     20457     20460
     20456     20454     20457     20458     20456     20454     20457     20459
     20456     20454     20457     20460     20457     20460     20463     20464
     20457     20460     20463     20465     20457     20460     20463     20466
     20458     20457     20460     20461     20458     20457     20460     20462
     20458     20457     20460     20463     20459     20457     20460     20461
     20459     20457     20460     20462     20459     20457     20460     20463
     20460     20463     20466     20467     20460     20463     20466     20468
     20461     20460     20463     20464     20461     20460     20463     20465
     20461     20460     20463     20466     20462     20460     20463     20464
     20462     20460     20463     20465     20462     20460     20463     20466
     20463     20466     20468     20469     20463     20466     20468     20470
     20464     20463     20466     20467     20464     20463     20466     20468
     20465     20463     20466     20467     20465     20463     20466     20468
     20466     20468     20470     20471     20466     20468     20470     20472
     20466     20468     20470     20473     20467     20466     20468     20469
     20467     20466     20468     20470     20468     20470     20473     20474
     20468     20470     20473     20475     20468     20470     20473     20476
     20469     20468     20470     20471     20469     20468     20470     20472
     20469     20468     20470     20473     20470     20473     20476     20477
     20470     20473     20476     20478     20470     20473     20476     20479
     20471     20470     20473     20474     20471     20470     20473     20475
     20471     20470     20473     20476     20472     20470     20473     20474
     20472     20470     20473     20475     20472     20470     20473     20476
     20473     20476     20479     20480     20473     20476     20479     20481
     20473     20476     20479     20482     20474     20473     20476     20477
     20474     20473     20476     20478     20474     20473     20476     20479
     20475     20473     20476     20477     20475     20473     20476     20478
     20475     20473     20476     20479     20476     20479     20482     20483
     20476     20479     20482     20484     20476     20479     20482     20485
     20477     20476     20479     20480     20477     20476     20479     20481
     20477     20476     20479     20482     20478     20476     20479     20480
     20478     20476     20479     20481     20478     20476     20479     20482
     20479     20482     20485     20486     20479     20482     20485     20487
     20479     20482     20485     20488     20480     20479     20482     20483
     20480     20479     20482     20484     20480     20479     20482     20485
     20481     20479     20482     20483     20481     20479     20482     20484
     20481     20479     20482     20485     20482     20485     20488     20489
     20482     20485     20488     20490     20482     20485     20488     20491
     20483     20482     20485     20486     20483     20482     20485     20487
     20483     20482     20485     20488     20484     20482     20485     20486
     20484     20482     20485     20487     20484     20482     20485     20488
     20485     20488     20491     20492     20485     20488     20491     20493
     20485     20488     20491     20494     20486     20485     20488     20489
     20486     20485     20488     20490     20486     20485     20488     20491
     20487     20485     20488     20489     20487     20485     20488     20490
     20487     20485     20488     20491     20489     20488     20491     20492
     20489     20488     20491     20493     20489     20488     20491     20494
     20490     20488     20491     20492     20490     20488     20491     20493
     20490     20488     20491     20494     20495     20496     20511     20512
     20495     20496     20511     20513     20495     20496     20511     20517
     20496     20495     20499     20500     20496     20495     20499     20501
     20496     20495     20499     20502     20496     20495     20503     20504
     20496     20495     20503     20505     20496     20495     20503     20506
     20496     20495     20507     20508     20496     20495     20507     20509
     20496     20495     20507     20510     20496     20511     20517     20514
     20497     20496     20495     20499     20497     20496     20495     20503
     20497     20496     20495     20507     20497     20496     20511     20512
     20497     20496     20511     20513     20497     20496     20511     20517
     20498     20496     20495     20499     20498     20496     20495     20503
     20498     20496     20495     20507     20498     20496     20511     20512
     20498     20496     20511     20513     20498     20496     20511     20517
     20499     20495     20496     20511     20499     20495     20503     20504
     20499     20495     20503     20505     20499     20495     20503     20506
     20499     20495     20507     20508     20499     20495     20507     20509
     20499     20495     20507     20510     20500     20499     20495     20503
     20500     20499     20495     20507     20501     20499     20495     20503
     20501     20499     20495     20507     20502     20499     20495     20503
     20502     20499     20495     20507     20503     20495     20496     20511
     20503     20495     20507     20508     20503     20495     20507     20509
     20503     20495     20507     20510     20504     20503     20495     20507
     20505     20503     20495     20507     20506     20503     20495     20507
     20507     20495     20496     20511     20511     20517     20514     20515
     20511     20517     20514     20516     20511     20517     20514     20518
     20512     20511     20517     20514     20513     20511     20517     20514
     20514     20518     20519     20520     20514     20518     20519     20521
     20514     20518     20519     20522     20515     20514     20518     20519
     20516     20514     20518     20519     20517     20514     20518     20519
     20518     20519     20522     20523     20518     20519     20522     20524
     20518     20519     20522     20530     20519     20522     20524     20525
     20519     20522     20530     20531     20519     20522     20530     20532
     20519     20522     20530     20533     20520     20519     20522     20523
     20520     20519     20522     20524     20520     20519     20522     20530
     20521     20519     20522     20523     20521     20519     20522     20524
     20521     20519     20522     20530     20522     20524     20525     20526
     20522     20524     20525     20527     20522     20530     20533     20534
     20523     20522     20524     20525     20523     20522     20530     20531
     20523     20522     20530     20532     20523     20522     20530     20533
     20524     20522     20530     20531     20524     20522     20530     20532
     20524     20522     20530     20533     20524     20525     20527     20528
     20524     20525     20527     20529     20524     20525     20527     20539
     20525     20524     20522     20530     20525     20527     20539     20540
     20525     20527     20539     20541     20525     20527     20539     20542
     20526     20525     20527     20528     20526     20525     20527     20529
     20526     20525     20527     20539     20527     20539     20542     20543
     20527     20539     20542     20544     20527     20539     20542     20545
     20528     20527     20539     20540     20528     20527     20539     20541
     20528     20527     20539     20542     20529     20527     20539     20540
     20529     20527     20539     20541     20529     20527     20539     20542
     20530     20533     20534     20535     20530     20533     20534     20536
     20531     20530     20533     20534     20532     20530     20533     20534
     20533     20534     20536     20537     20533     20534     20536     20538
     20533     20534     20536     20586     20534     20536     20586     20587
     20534     20536     20586     20588     20534     20536     20586     20589
     20535     20534     20536     20537     20535     20534     20536     20538
     20535     20534     20536     20586     20536     20586     20589     20590
     20536     20586     20589     20591     20536     20586     20589     20592
     20537     20536     20586     20587     20537     20536     20586     20588
     20537     20536     20586     20589     20538     20536     20586     20587
     20538     20536     20586     20588     20538     20536     20586     20589
     20539     20542     20545     20546     20539     20542     20545     20547
     20539     20542     20545     20548     20540     20539     20542     20543
     20540     20539     20542     20544     20540     20539     20542     20545
     20541     20539     20542     20543     20541     20539     20542     20544
     20541     20539     20542     20545     20542     20545     20548     20549
     20542     20545     20548     20550     20542     20545     20548     20551
     20543     20542     20545     20546     20543     20542     20545     20547
     20543     20542     20545     20548     20544     20542     20545     20546
     20544     20542     20545     20547     20544     20542     20545     20548
     20545     20548     20551     20552     20545     20548     20551     20553
     20545     20548     20551     20554     20546     20545     20548     20549
     20546     20545     20548     20550     20546     20545     20548     20551
     20547     20545     20548     20549     20547     20545     20548     20550
     20547     20545     20548     20551     20548     20551     20554     20555
     20548     20551     20554     20556     20548     20551     20554     20557
     20549     20548     20551     20552     20549     20548     20551     20553
     20549     20548     20551     20554     20550     20548     20551     20552
     20550     20548     20551     20553     20550     20548     20551     20554
     20551     20554     20557     20558     20551     20554     20557     20559
     20552     20551     20554     20555     20552     20551     20554     20556
     20552     20551     20554     20557     20553     20551     20554     20555
     20553     20551     20554     20556     20553     20551     20554     20557
     20554     20557     20559     20560     20554     20557     20559     20561
     20555     20554     20557     20558     20555     20554     20557     20559
     20556     20554     20557     20558     20556     20554     20557     20559
     20557     20559     20561     20562     20557     20559     20561     20563
     20557     20559     20561     20564     20558     20557     20559     20560
     20558     20557     20559     20561     20559     20561     20564     20565
     20559     20561     20564     20566     20559     20561     20564     20567
     20560     20559     20561     20562     20560     20559     20561     20563
     20560     20559     20561     20564     20561     20564     20567     20568
     20561     20564     20567     20569     20561     20564     20567     20570
     20562     20561     20564     20565     20562     20561     20564     20566
     20562     20561     20564     20567     20563     20561     20564     20565
     20563     20561     20564     20566     20563     20561     20564     20567
     20564     20567     20570     20571     20564     20567     20570     20572
     20564     20567     20570     20573     20565     20564     20567     20568
     20565     20564     20567     20569     20565     20564     20567     20570
     20566     20564     20567     20568     20566     20564     20567     20569
     20566     20564     20567     20570     20567     20570     20573     20574
     20567     20570     20573     20575     20567     20570     20573     20576
     20568     20567     20570     20571     20568     20567     20570     20572
     20568     20567     20570     20573     20569     20567     20570     20571
     20569     20567     20570     20572     20569     20567     20570     20573
     20570     20573     20576     20577     20570     20573     20576     20578
     20570     20573     20576     20579     20571     20570     20573     20574
     20571     20570     20573     20575     20571     20570     20573     20576
     20572     20570     20573     20574     20572     20570     20573     20575
     20572     20570     20573     20576     20573     20576     20579     20580
     20573     20576     20579     20581     20573     20576     20579     20582
     20574     20573     20576     20577     20574     20573     20576     20578
     20574     20573     20576     20579     20575     20573     20576     20577
     20575     20573     20576     20578     20575     20573     20576     20579
     20576     20579     20582     20583     20576     20579     20582     20584
     20576     20579     20582     20585     20577     20576     20579     20580
     20577     20576     20579     20581     20577     20576     20579     20582
     20578     20576     20579     20580     20578     20576     20579     20581
     20578     20576     20579     20582     20580     20579     20582     20583
     20580     20579     20582     20584     20580     20579     20582     20585
     20581     20579     20582     20583     20581     20579     20582     20584
     20581     20579     20582     20585     20586     20589     20592     20593
     20586     20589     20592     20594     20586     20589     20592     20595
     20587     20586     20589     20590     20587     20586     20589     20591
     20587     20586     20589     20592     20588     20586     20589     20590
     20588     20586     20589     20591     20588     20586     20589     20592
     20589     20592     20595     20596     20589     20592     20595     20597
     20589     20592     20595     20598     20590     20589     20592     20593
     20590     20589     20592     20594     20590     20589     20592     20595
     20591     20589     20592     20593     20591     20589     20592     20594
     20591     20589     20592     20595     20592     20595     20598     20599
     20592     20595     20598     20600     20592     20595     20598     20601
     20593     20592     20595     20596     20593     20592     20595     20597
     20593     20592     20595     20598     20594     20592     20595     20596
     20594     20592     20595     20597     20594     20592     20595     20598
     20595     20598     20601     20602     20595     20598     20601     20603
     20595     20598     20601     20604     20596     20595     20598     20599
     20596     20595     20598     20600     20596     20595     20598     20601
     20597     20595     20598     20599     20597     20595     20598     20600
     20597     20595     20598     20601     20598     20601     20604     20605
     20598     20601     20604     20606     20599     20598     20601     20602
     20599     20598     20601     20603     20599     20598     20601     20604
     20600     20598     20601     20602     20600     20598     20601     20603
     20600     20598     20601     20604     20601     20604     20606     20607
     20601     20604     20606     20608     20602     20601     20604     20605
     20602     20601     20604     20606     20603     20601     20604     20605
     20603     20601     20604     20606     20604     20606     20608     20609
     20604     20606     20608     20610     20604     20606     20608     20611
     20605     20604     20606     20607     20605     20604     20606     20608
     20606     20608     20611     20612     20606     20608     20611     20613
     20606     20608     20611     20614     20607     20606     20608     20609
     20607     20606     20608     20610     20607     20606     20608     20611
     20608     20611     20614     20615     20608     20611     20614     20616
     20608     20611     20614     20617     20609     20608     20611     20612
     20609     20608     20611     20613     20609     20608     20611     20614
     20610     20608     20611     20612     20610     20608     20611     20613
     20610     20608     20611     20614     20611     20614     20617     20618
     20611     20614     20617     20619     20611     20614     20617     20620
     20612     20611     20614     20615     20612     20611     20614     20616
     20612     20611     20614     20617     20613     20611     20614     20615
     20613     20611     20614     20616     20613     20611     20614     20617
     20614     20617     20620     20621     20614     20617     20620     20622
     20614     20617     20620     20623     20615     20614     20617     20618
     20615     20614     20617     20619     20615     20614     20617     20620
     20616     20614     20617     20618     20616     20614     20617     20619
     20616     20614     20617     20620     20617     20620     20623     20624
     20617     20620     20623     20625     20617     20620     20623     20626
     20618     20617     20620     20621     20618     20617     20620     20622
     20618     20617     20620     20623     20619     20617     20620     20621
     20619     20617     20620     20622     20619     20617     20620     20623
     20620     20623     20626     20627     20620     20623     20626     20628
     20620     20623     20626     20629     20621     20620     20623     20624
     20621     20620     20623     20625     20621     20620     20623     20626
     20622     20620     20623     20624     20622     20620     20623     20625
     20622     20620     20623     20626     20623     20626     20629     20630
     20623     20626     20629     20631     20623     20626     20629     20632
     20624     20623     20626     20627     20624     20623     20626     20628
     20624     20623     20626     20629     20625     20623     20626     20627
     20625     20623     20626     20628     20625     20623     20626     20629
     20627     20626     20629     20630     20627     20626     20629     20631
     20627     20626     20629     20632     20628     20626     20629     20630
     20628     20626     20629     20631     20628     20626     20629     20632
     20633     20637     20640     20641     20633     20637     20640     20642
     20633     20637     20640     20647     20634     20633     20637     20638
     20634     20633     20637     20639     20634     20633     20637     20640
     20635     20633     20637     20638     20635     20633     20637     20639
     20635     20633     20637     20640     20636     20633     20637     20638
     20636     20633     20637     20639     20636     20633     20637     20640
     20637     20640     20647     20643     20638     20637     20640     20641
     20638     20637     20640     20642     20638     20637     20640     20647
     20639     20637     20640     20641     20639     20637     20640     20642
     20639     20637     20640     20647     20640     20647     20643     20644
     20640     20647     20643     20645     20640     20647     20643     20646
     20641     20640     20647     20643     20642     20640     20647     20643
     20643     20646     20648     20649     20643     20646     20648     20650
     20643     20646     20648     20651     20644     20643     20646     20648
     20645     20643     20646     20648     20646     20648     20651     20652
     20646     20648     20651     20653     20646     20648     20651     20659
     20647     20643     20646     20648     20648     20651     20653     20654
     20648     20651     20659     20660     20648     20651     20659     20661
     20648     20651     20659     20662     20649     20648     20651     20652
     20649     20648     20651     20653     20649     20648     20651     20659
     20650     20648     20651     20652     20650     20648     20651     20653
     20650     20648     20651     20659     20651     20653     20654     20655
     20651     20653     20654     20656     20651     20659     20662     20663
     20652     20651     20653     20654     20652     20651     20659     20660
     20652     20651     20659     20661     20652     20651     20659     20662
     20653     20651     20659     20660     20653     20651     20659     20661
     20653     20651     20659     20662     20653     20654     20656     20657
     20653     20654     20656     20658     20653     20654     20656     20668
     20654     20653     20651     20659     20654     20656     20668     20669
     20654     20656     20668     20670     20654     20656     20668     20671
     20655     20654     20656     20657     20655     20654     20656     20658
     20655     20654     20656     20668     20656     20668     20671     20672
     20656     20668     20671     20673     20656     20668     20671     20674
     20657     20656     20668     20669     20657     20656     20668     20670
     20657     20656     20668     20671     20658     20656     20668     20669
     20658     20656     20668     20670     20658     20656     20668     20671
     20659     20662     20663     20664     20659     20662     20663     20665
     20660     20659     20662     20663     20661     20659     20662     20663
     20662     20663     20665     20666     20662     20663     20665     20667
     20662     20663     20665     20715     20663     20665     20715     20716
     20663     20665     20715     20717     20663     20665     20715     20718
     20664     20663     20665     20666     20664     20663     20665     20667
     20664     20663     20665     20715     20665     20715     20718     20719
     20665     20715     20718     20720     20665     20715     20718     20721
     20666     20665     20715     20716     20666     20665     20715     20717
     20666     20665     20715     20718     20667     20665     20715     20716
     20667     20665     20715     20717     20667     20665     20715     20718
     20668     20671     20674     20675     20668     20671     20674     20676
     20668     20671     20674     20677     20669     20668     20671     20672
     20669     20668     20671     20673     20669     20668     20671     20674
     20670     20668     20671     20672     20670     20668     20671     20673
     20670     20668     20671     20674     20671     20674     20677     20678
     20671     20674     20677     20679     20671     20674     20677     20680
     20672     20671     20674     20675     20672     20671     20674     20676
     20672     20671     20674     20677     20673     20671     20674     20675
     20673     20671     20674     20676     20673     20671     20674     20677
     20674     20677     20680     20681     20674     20677     20680     20682
     20674     20677     20680     20683     20675     20674     20677     20678
     20675     20674     20677     20679     20675     20674     20677     20680
     20676     20674     20677     20678     20676     20674     20677     20679
     20676     20674     20677     20680     20677     20680     20683     20684
     20677     20680     20683     20685     20677     20680     20683     20686
     20678     20677     20680     20681     20678     20677     20680     20682
     20678     20677     20680     20683     20679     20677     20680     20681
     20679     20677     20680     20682     20679     20677     20680     20683
     20680     20683     20686     20687     20680     20683     20686     20688
     20681     20680     20683     20684     20681     20680     20683     20685
     20681     20680     20683     20686     20682     20680     20683     20684
     20682     20680     20683     20685     20682     20680     20683     20686
     20683     20686     20688     20689     20683     20686     20688     20690
     20684     20683     20686     20687     20684     20683     20686     20688
     20685     20683     20686     20687     20685     20683     20686     20688
     20686     20688     20690     20691     20686     20688     20690     20692
     20686     20688     20690     20693     20687     20686     20688     20689
     20687     20686     20688     20690     20688     20690     20693     20694
     20688     20690     20693     20695     20688     20690     20693     20696
     20689     20688     20690     20691     20689     20688     20690     20692
     20689     20688     20690     20693     20690     20693     20696     20697
     20690     20693     20696     20698     20690     20693     20696     20699
     20691     20690     20693     20694     20691     20690     20693     20695
     20691     20690     20693     20696     20692     20690     20693     20694
     20692     20690     20693     20695     20692     20690     20693     20696
     20693     20696     20699     20700     20693     20696     20699     20701
     20693     20696     20699     20702     20694     20693     20696     20697
     20694     20693     20696     20698     20694     20693     20696     20699
     20695     20693     20696     20697     20695     20693     20696     20698
     20695     20693     20696     20699     20696     20699     20702     20703
     20696     20699     20702     20704     20696     20699     20702     20705
     20697     20696     20699     20700     20697     20696     20699     20701
     20697     20696     20699     20702     20698     20696     20699     20700
     20698     20696     20699     20701     20698     20696     20699     20702
     20699     20702     20705     20706     20699     20702     20705     20707
     20699     20702     20705     20708     20700     20699     20702     20703
     20700     20699     20702     20704     20700     20699     20702     20705
     20701     20699     20702     20703     20701     20699     20702     20704
     20701     20699     20702     20705     20702     20705     20708     20709
     20702     20705     20708     20710     20702     20705     20708     20711
     20703     20702     20705     20706     20703     20702     20705     20707
     20703     20702     20705     20708     20704     20702     20705     20706
     20704     20702     20705     20707     20704     20702     20705     20708
     20705     20708     20711     20712     20705     20708     20711     20713
     20705     20708     20711     20714     20706     20705     20708     20709
     20706     20705     20708     20710     20706     20705     20708     20711
     20707     20705     20708     20709     20707     20705     20708     20710
     20707     20705     20708     20711     20709     20708     20711     20712
     20709     20708     20711     20713     20709     20708     20711     20714
     20710     20708     20711     20712     20710     20708     20711     20713
     20710     20708     20711     20714     20715     20718     20721     20722
     20715     20718     20721     20723     20715     20718     20721     20724
     20716     20715     20718     20719     20716     20715     20718     20720
     20716     20715     20718     20721     20717     20715     20718     20719
     20717     20715     20718     20720     20717     20715     20718     20721
     20718     20721     20724     20725     20718     20721     20724     20726
     20718     20721     20724     20727     20719     20718     20721     20722
     20719     20718     20721     20723     20719     20718     20721     20724
     20720     20718     20721     20722     20720     20718     20721     20723
     20720     20718     20721     20724     20721     20724     20727     20728
     20721     20724     20727     20729     20721     20724     20727     20730
     20722     20721     20724     20725     20722     20721     20724     20726
     20722     20721     20724     20727     20723     20721     20724     20725
     20723     20721     20724     20726     20723     20721     20724     20727
     20724     20727     20730     20731     20724     20727     20730     20732
     20724     20727     20730     20733     20725     20724     20727     20728
     20725     20724     20727     20729     20725     20724     20727     20730
     20726     20724     20727     20728     20726     20724     20727     20729
     20726     20724     20727     20730     20727     20730     20733     20734
     20727     20730     20733     20735     20728     20727     20730     20731
     20728     20727     20730     20732     20728     20727     20730     20733
     20729     20727     20730     20731     20729     20727     20730     20732
     20729     20727     20730     20733     20730     20733     20735     20736
     20730     20733     20735     20737     20731     20730     20733     20734
     20731     20730     20733     20735     20732     20730     20733     20734
     20732     20730     20733     20735     20733     20735     20737     20738
     20733     20735     20737     20739     20733     20735     20737     20740
     20734     20733     20735     20736     20734     20733     20735     20737
     20735     20737     20740     20741     20735     20737     20740     20742
     20735     20737     20740     20743     20736     20735     20737     20738
     20736     20735     20737     20739     20736     20735     20737     20740
     20737     20740     20743     20744     20737     20740     20743     20745
     20737     20740     20743     20746     20738     20737     20740     20741
     20738     20737     20740     20742     20738     20737     20740     20743
     20739     20737     20740     20741     20739     20737     20740     20742
     20739     20737     20740     20743     20740     20743     20746     20747
     20740     20743     20746     20748     20740     20743     20746     20749
     20741     20740     20743     20744     20741     20740     20743     20745
     20741     20740     20743     20746     20742     20740     20743     20744
     20742     20740     20743     20745     20742     20740     20743     20746
     20743     20746     20749     20750     20743     20746     20749     20751
     20743     20746     20749     20752     20744     20743     20746     20747
     20744     20743     20746     20748     20744     20743     20746     20749
     20745     20743     20746     20747     20745     20743     20746     20748
     20745     20743     20746     20749     20746     20749     20752     20753
     20746     20749     20752     20754     20746     20749     20752     20755
     20747     20746     20749     20750     20747     20746     20749     20751
     20747     20746     20749     20752     20748     20746     20749     20750
     20748     20746     20749     20751     20748     20746     20749     20752
     20749     20752     20755     20756     20749     20752     20755     20757
     20749     20752     20755     20758     20750     20749     20752     20753
     20750     20749     20752     20754     20750     20749     20752     20755
     20751     20749     20752     20753     20751     20749     20752     20754
     20751     20749     20752     20755     20752     20755     20758     20759
     20752     20755     20758     20760     20752     20755     20758     20761
     20753     20752     20755     20756     20753     20752     20755     20757
     20753     20752     20755     20758     20754     20752     20755     20756
     20754     20752     20755     20757     20754     20752     20755     20758
     20756     20755     20758     20759     20756     20755     20758     20760
     20756     20755     20758     20761     20757     20755     20758     20759
     20757     20755     20758     20760     20757     20755     20758     20761
     20762     20766     20769     20770     20762     20766     20769     20800
     20762     20808     20805     20800     20762     20808     20805     20806
     20762     20808     20805     20807     20763     20762     20764     20765
     20763     20762     20766     20767     20763     20762     20766     20768
     20763     20762     20766     20769     20763     20762     20808     20805
     20763     20762     20808     20809     20763     20762     20808     20810
     20764     20762     20766     20767     20764     20762     20766     20768
     20764     20762     20766     20769     20764     20762     20808     20805
     20764     20762     20808     20809     20764     20762     20808     20810
     20765     20764     20762     20766     20765     20764     20762     20808
     20766     20762     20808     20805     20766     20762     20808     20809
     20766     20762     20808     20810     20766     20769     20770     20771
     20766     20769     20770     20772     20766     20769     20800     20798
     20766     20769     20800     20801     20766     20769     20800     20805
     20767     20766     20762     20808     20767     20766     20769     20770
     20767     20766     20769     20800     20768     20766     20762     20808
     20768     20766     20769     20770     20768     20766     20769     20800
     20769     20766     20762     20808     20769     20770     20772     20773
     20769     20770     20772     20774     20769     20770     20772     20775
     20769     20800     20798     20775     20769     20800     20798     20795
     20769     20800     20798     20799     20769     20800     20801     20802
     20769     20800     20801     20803     20769     20800     20801     20804
     20769     20800     20805     20806     20769     20800     20805     20807
     20769     20800     20805     20808     20770     20769     20800     20798
     20770     20769     20800     20801     20770     20769     20800     20805
     20770     20772     20775     20776     20770     20772     20775     20777
     20770     20772     20775     20798     20771     20770     20769     20800
     20771     20770     20772     20773     20771     20770     20772     20774
     20771     20770     20772     20775     20772     20770     20769     20800
     20772     20775     20777     20778     20772     20775     20777     20779
     20772     20775     20777     20787     20772     20775     20798     20795
     20772     20775     20798     20799     20772     20775     20798     20800
     20773     20772     20775     20776     20773     20772     20775     20777
     20773     20772     20775     20798     20774     20772     20775     20776
     20774     20772     20775     20777     20774     20772     20775     20798
     20775     20777     20779     20780     20775     20777     20779     20781
     20775     20777     20779     20782     20775     20777     20787     20785
     20775     20777     20787     20788     20775     20777     20787     20792
     20775     20798     20795     20792     20775     20798     20795     20796
     20775     20798     20795     20797     20775     20798     20800     20801
     20775     20798     20800     20805     20776     20775     20777     20778
     20776     20775     20777     20779     20776     20775     20777     20787
     20776     20775     20798     20795     20776     20775     20798     20799
     20776     20775     20798     20800     20777     20775     20798     20795
     20777     20775     20798     20799     20777     20775     20798     20800
     20777     20779     20782     20783     20777     20779     20782     20784
     20777     20779     20782     20785     20777     20787     20785     20782
     20777     20787     20785     20786     20777     20787     20785     20811
     20777     20787     20788     20789     20777     20787     20788     20790
     20777     20787     20788     20791     20777     20787     20792     20793
     20777     20787     20792     20794     20777     20787     20792     20795
     20778     20777     20775     20798     20778     20777     20779     20780
     20778     20777     20779     20781     20778     20777     20779     20782
     20778     20777     20787     20785     20778     20777     20787     20788
     20778     20777     20787     20792     20779     20777     20775     20798
     20779     20777     20787     20785     20779     20777     20787     20788
     20779     20777     20787     20792     20779     20782     20785     20786
     20779     20782     20785     20787     20779     20782     20785     20811
     20780     20779     20777     20787     20780     20779     20782     20783
     20780     20779     20782     20784     20780     20779     20782     20785
     20781     20779     20777     20787     20781     20779     20782     20783
     20781     20779     20782     20784     20781     20779     20782     20785
     20782     20779     20777     20787     20782     20785     20787     20788
     20782     20785     20787     20792     20782     20785     20811     20812
     20782     20785     20811     20813     20782     20785     20811     20817
     20783     20782     20785     20786     20783     20782     20785     20787
     20783     20782     20785     20811     20784     20782     20785     20786
     20784     20782     20785     20787     20784     20782     20785     20811
     20785     20787     20788     20789     20785     20787     20788     20790
     20785     20787     20788     20791     20785     20787     20792     20793
     20785     20787     20792     20794     20785     20787     20792     20795
     20785     20811     20813     20814     20785     20811     20813     20815
     20785     20811     20813     20816     20785     20811     20817     20818
     20785     20811     20817     20819     20785     20811     20817     20820
     20786     20785     20787     20788     20786     20785     20787     20792
     20786     20785     20811     20812     20786     20785     20811     20813
     20786     20785     20811     20817     20787     20777     20775     20798
     20787     20785     20811     20812     20787     20785     20811     20813
     20787     20785     20811     20817     20787     20792     20795     20796
     20787     20792     20795     20797     20787     20792     20795     20798
     20788     20787     20785     20811     20788     20787     20792     20793
     20788     20787     20792     20794     20788     20787     20792     20795
     20789     20788     20787     20792     20790     20788     20787     20792
     20791     20788     20787     20792     20792     20787     20785     20811
     20792     20795     20798     20799     20792     20795     20798     20800
     20793     20792     20795     20796     20793     20792     20795     20797
     20793     20792     20795     20798     20794     20792     20795     20796
     20794     20792     20795     20797     20794     20792     20795     20798
     20795     20798     20800     20801     20795     20798     20800     20805
     20796     20795     20798     20799     20796     20795     20798     20800
     20797     20795     20798     20799     20797     20795     20798     20800
     20798     20800     20801     20802     20798     20800     20801     20803
     20798     20800     20801     20804     20798     20800     20805     20806
     20798     20800     20805     20807     20798     20800     20805     20808
     20799     20798     20800     20801     20799     20798     20800     20805
     20800     20805     20808     20809     20800     20805     20808     20810
     20801     20800     20805     20806     20801     20800     20805     20807
     20801     20800     20805     20808     20802     20801     20800     20805
     20803     20801     20800     20805     20804     20801     20800     20805
     20806     20805     20808     20809     20806     20805     20808     20810
     20807     20805     20808     20809     20807     20805     20808     20810
     20811     20817     20820     20821     20811     20817     20820     20822
     20811     20817     20820     20823     20812     20811     20813     20814
     20812     20811     20813     20815     20812     20811     20813     20816
     20812     20811     20817     20818     20812     20811     20817     20819
     20812     20811     20817     20820     20813     20811     20817     20818
     20813     20811     20817     20819     20813     20811     20817     20820
     20814     20813     20811     20817     20815     20813     20811     20817
     20816     20813     20811     20817     20817     20820     20823     20824
     20817     20820     20823     20825     20817     20820     20823     20826
     20818     20817     20820     20821     20818     20817     20820     20822
     20818     20817     20820     20823     20819     20817     20820     20821
     20819     20817     20820     20822     20819     20817     20820     20823
     20820     20823     20826     20827     20820     20823     20826     20828
     20820     20823     20826     20832     20821     20820     20823     20824
     20821     20820     20823     20825     20821     20820     20823     20826
     20822     20820     20823     20824     20822     20820     20823     20825
     20822     20820     20823     20826     20823     20826     20828     20829
     20823     20826     20828     20830     20823     20826     20828     20831
     20823     20826     20832     20833     20823     20826     20832     20834
     20823     20826     20832     20835     20824     20823     20826     20827
     20824     20823     20826     20828     20824     20823     20826     20832
     20825     20823     20826     20827     20825     20823     20826     20828
     20825     20823     20826     20832     20827     20826     20828     20829
     20827     20826     20828     20830     20827     20826     20828     20831
     20827     20826     20832     20833     20827     20826     20832     20834
     20827     20826     20832     20835     20828     20826     20832     20833
     20828     20826     20832     20834     20828     20826     20832     20835
     20829     20828     20826     20832     20830     20828     20826     20832
     20831     20828     20826     20832     20836     20840     20843     20844
     20836     20840     20843     20845     20836     20840     20843     20850
     20837     20836     20840     20841     20837     20836     20840     20842
     20837     20836     20840     20843     20838     20836     20840     20841
     20838     20836     20840     20842     20838     20836     20840     20843
     20839     20836     20840     20841     20839     20836     20840     20842
     20839     20836     20840     20843     20840     20843     20850     20846
     20841     20840     20843     20844     20841     20840     20843     20845
     20841     20840     20843     20850     20842     20840     20843     20844
     20842     20840     20843     20845     20842     20840     20843     20850
     20843     20850     20846     20847     20843     20850     20846     20848
     20843     20850     20846     20849     20844     20843     20850     20846
     20845     20843     20850     20846     20846     20849     20851     20852
     20846     20849     20851     20853     20846     20849     20851     20854
     20847     20846     20849     20851     20848     20846     20849     20851
     20849     20851     20854     20855     20849     20851     20854     20856
     20849     20851     20854     20862     20850     20846     20849     20851
     20851     20854     20856     20857     20851     20854     20862     20863
     20851     20854     20862     20864     20851     20854     20862     20865
     20852     20851     20854     20855     20852     20851     20854     20856
     20852     20851     20854     20862     20853     20851     20854     20855
     20853     20851     20854     20856     20853     20851     20854     20862
     20854     20856     20857     20858     20854     20856     20857     20859
     20854     20862     20865     20866     20855     20854     20856     20857
     20855     20854     20862     20863     20855     20854     20862     20864
     20855     20854     20862     20865     20856     20854     20862     20863
     20856     20854     20862     20864     20856     20854     20862     20865
     20856     20857     20859     20860     20856     20857     20859     20861
     20856     20857     20859     20871     20857     20856     20854     20862
     20857     20859     20871     20872     20857     20859     20871     20873
     20857     20859     20871     20874     20858     20857     20859     20860
     20858     20857     20859     20861     20858     20857     20859     20871
     20859     20871     20874     20875     20859     20871     20874     20876
     20859     20871     20874     20877     20860     20859     20871     20872
     20860     20859     20871     20873     20860     20859     20871     20874
     20861     20859     20871     20872     20861     20859     20871     20873
     20861     20859     20871     20874     20862     20865     20866     20867
     20862     20865     20866     20868     20863     20862     20865     20866
     20864     20862     20865     20866     20865     20866     20868     20869
     20865     20866     20868     20870     20865     20866     20868     20918
     20866     20868     20918     20919     20866     20868     20918     20920
     20866     20868     20918     20921     20867     20866     20868     20869
     20867     20866     20868     20870     20867     20866     20868     20918
     20868     20918     20921     20922     20868     20918     20921     20923
     20868     20918     20921     20924     20869     20868     20918     20919
     20869     20868     20918     20920     20869     20868     20918     20921
     20870     20868     20918     20919     20870     20868     20918     20920
     20870     20868     20918     20921     20871     20874     20877     20878
     20871     20874     20877     20879     20871     20874     20877     20880
     20872     20871     20874     20875     20872     20871     20874     20876
     20872     20871     20874     20877     20873     20871     20874     20875
     20873     20871     20874     20876     20873     20871     20874     20877
     20874     20877     20880     20881     20874     20877     20880     20882
     20874     20877     20880     20883     20875     20874     20877     20878
     20875     20874     20877     20879     20875     20874     20877     20880
     20876     20874     20877     20878     20876     20874     20877     20879
     20876     20874     20877     20880     20877     20880     20883     20884
     20877     20880     20883     20885     20877     20880     20883     20886
     20878     20877     20880     20881     20878     20877     20880     20882
     20878     20877     20880     20883     20879     20877     20880     20881
     20879     20877     20880     20882     20879     20877     20880     20883
     20880     20883     20886     20887     20880     20883     20886     20888
     20880     20883     20886     20889     20881     20880     20883     20884
     20881     20880     20883     20885     20881     20880     20883     20886
     20882     20880     20883     20884     20882     20880     20883     20885
     20882     20880     20883     20886     20883     20886     20889     20890
     20883     20886     20889     20891     20884     20883     20886     20887
     20884     20883     20886     20888     20884     20883     20886     20889
     20885     20883     20886     20887     20885     20883     20886     20888
     20885     20883     20886     20889     20886     20889     20891     20892
     20886     20889     20891     20893     20887     20886     20889     20890
     20887     20886     20889     20891     20888     20886     20889     20890
     20888     20886     20889     20891     20889     20891     20893     20894
     20889     20891     20893     20895     20889     20891     20893     20896
     20890     20889     20891     20892     20890     20889     20891     20893
     20891     20893     20896     20897     20891     20893     20896     20898
     20891     20893     20896     20899     20892     20891     20893     20894
     20892     20891     20893     20895     20892     20891     20893     20896
     20893     20896     20899     20900     20893     20896     20899     20901
     20893     20896     20899     20902     20894     20893     20896     20897
     20894     20893     20896     20898     20894     20893     20896     20899
     20895     20893     20896     20897     20895     20893     20896     20898
     20895     20893     20896     20899     20896     20899     20902     20903
     20896     20899     20902     20904     20896     20899     20902     20905
     20897     20896     20899     20900     20897     20896     20899     20901
     20897     20896     20899     20902     20898     20896     20899     20900
     20898     20896     20899     20901     20898     20896     20899     20902
     20899     20902     20905     20906     20899     20902     20905     20907
     20899     20902     20905     20908     20900     20899     20902     20903
     20900     20899     20902     20904     20900     20899     20902     20905
     20901     20899     20902     20903     20901     20899     20902     20904
     20901     20899     20902     20905     20902     20905     20908     20909
     20902     20905     20908     20910     20902     20905     20908     20911
     20903     20902     20905     20906     20903     20902     20905     20907
     20903     20902     20905     20908     20904     20902     20905     20906
     20904     20902     20905     20907     20904     20902     20905     20908
     20905     20908     20911     20912     20905     20908     20911     20913
     20905     20908     20911     20914     20906     20905     20908     20909
     20906     20905     20908     20910     20906     20905     20908     20911
     20907     20905     20908     20909     20907     20905     20908     20910
     20907     20905     20908     20911     20908     20911     20914     20915
     20908     20911     20914     20916     20908     20911     20914     20917
     20909     20908     20911     20912     20909     20908     20911     20913
     20909     20908     20911     20914     20910     20908     20911     20912
     20910     20908     20911     20913     20910     20908     20911     20914
     20912     20911     20914     20915     20912     20911     20914     20916
     20912     20911     20914     20917     20913     20911     20914     20915
     20913     20911     20914     20916     20913     20911     20914     20917
     20918     20921     20924     20925     20918     20921     20924     20926
     20918     20921     20924     20927     20919     20918     20921     20922
     20919     20918     20921     20923     20919     20918     20921     20924
     20920     20918     20921     20922     20920     20918     20921     20923
     20920     20918     20921     20924     20921     20924     20927     20928
     20921     20924     20927     20929     20921     20924     20927     20930
     20922     20921     20924     20925     20922     20921     20924     20926
     20922     20921     20924     20927     20923     20921     20924     20925
     20923     20921     20924     20926     20923     20921     20924     20927
     20924     20927     20930     20931     20924     20927     20930     20932
     20924     20927     20930     20933     20925     20924     20927     20928
     20925     20924     20927     20929     20925     20924     20927     20930
     20926     20924     20927     20928     20926     20924     20927     20929
     20926     20924     20927     20930     20927     20930     20933     20934
     20927     20930     20933     20935     20927     20930     20933     20936
     20928     20927     20930     20931     20928     20927     20930     20932
     20928     20927     20930     20933     20929     20927     20930     20931
     20929     20927     20930     20932     20929     20927     20930     20933
     20930     20933     20936     20937     20930     20933     20936     20938
     20931     20930     20933     20934     20931     20930     20933     20935
     20931     20930     20933     20936     20932     20930     20933     20934
     20932     20930     20933     20935     20932     20930     20933     20936
     20933     20936     20938     20939     20933     20936     20938     20940
     20934     20933     20936     20937     20934     20933     20936     20938
     20935     20933     20936     20937     20935     20933     20936     20938
     20936     20938     20940     20941     20936     20938     20940     20942
     20936     20938     20940     20943     20937     20936     20938     20939
     20937     20936     20938     20940     20938     20940     20943     20944
     20938     20940     20943     20945     20938     20940     20943     20946
     20939     20938     20940     20941     20939     20938     20940     20942
     20939     20938     20940     20943     20940     20943     20946     20947
     20940     20943     20946     20948     20940     20943     20946     20949
     20941     20940     20943     20944     20941     20940     20943     20945
     20941     20940     20943     20946     20942     20940     20943     20944
     20942     20940     20943     20945     20942     20940     20943     20946
     20943     20946     20949     20950     20943     20946     20949     20951
     20943     20946     20949     20952     20944     20943     20946     20947
     20944     20943     20946     20948     20944     20943     20946     20949
     20945     20943     20946     20947     20945     20943     20946     20948
     20945     20943     20946     20949     20946     20949     20952     20953
     20946     20949     20952     20954     20946     20949     20952     20955
     20947     20946     20949     20950     20947     20946     20949     20951
     20947     20946     20949     20952     20948     20946     20949     20950
     20948     20946     20949     20951     20948     20946     20949     20952
     20949     20952     20955     20956     20949     20952     20955     20957
     20949     20952     20955     20958     20950     20949     20952     20953
     20950     20949     20952     20954     20950     20949     20952     20955
     20951     20949     20952     20953     20951     20949     20952     20954
     20951     20949     20952     20955     20952     20955     20958     20959
     20952     20955     20958     20960     20952     20955     20958     20961
     20953     20952     20955     20956     20953     20952     20955     20957
     20953     20952     20955     20958     20954     20952     20955     20956
     20954     20952     20955     20957     20954     20952     20955     20958
     20955     20958     20961     20962     20955     20958     20961     20963
     20955     20958     20961     20964     20956     20955     20958     20959
     20956     20955     20958     20960     20956     20955     20958     20961
     20957     20955     20958     20959     20957     20955     20958     20960
     20957     20955     20958     20961     20959     20958     20961     20962
     20959     20958     20961     20963     20959     20958     20961     20964
     20960     20958     20961     20962     20960     20958     20961     20963
     20960     20958     20961     20964     20965     20966     20981     20982
     20965     20966     20981     20983     20965     20966     20981     20987
     20966     20965     20969     20970     20966     20965     20969     20971
     20966     20965     20969     20972     20966     20965     20973     20974
     20966     20965     20973     20975     20966     20965     20973     20976
     20966     20965     20977     20978     20966     20965     20977     20979
     20966     20965     20977     20980     20966     20981     20987     20984
     20967     20966     20965     20969     20967     20966     20965     20973
     20967     20966     20965     20977     20967     20966     20981     20982
     20967     20966     20981     20983     20967     20966     20981     20987
     20968     20966     20965     20969     20968     20966     20965     20973
     20968     20966     20965     20977     20968     20966     20981     20982
     20968     20966     20981     20983     20968     20966     20981     20987
     20969     20965     20966     20981     20969     20965     20973     20974
     20969     20965     20973     20975     20969     20965     20973     20976
     20969     20965     20977     20978     20969     20965     20977     20979
     20969     20965     20977     20980     20970     20969     20965     20973
     20970     20969     20965     20977     20971     20969     20965     20973
     20971     20969     20965     20977     20972     20969     20965     20973
     20972     20969     20965     20977     20973     20965     20966     20981
     20973     20965     20977     20978     20973     20965     20977     20979
     20973     20965     20977     20980     20974     20973     20965     20977
     20975     20973     20965     20977     20976     20973     20965     20977
     20977     20965     20966     20981     20981     20987     20984     20985
     20981     20987     20984     20986     20981     20987     20984     20988
     20982     20981     20987     20984     20983     20981     20987     20984
     20984     20988     20989     20990     20984     20988     20989     20991
     20984     20988     20989     20992     20985     20984     20988     20989
     20986     20984     20988     20989     20987     20984     20988     20989
     20988     20989     20992     20993     20988     20989     20992     20994
     20988     20989     20992     21000     20989     20992     20994     20995
     20989     20992     21000     21001     20989     20992     21000     21002
     20989     20992     21000     21003     20990     20989     20992     20993
     20990     20989     20992     20994     20990     20989     20992     21000
     20991     20989     20992     20993     20991     20989     20992     20994
     20991     20989     20992     21000     20992     20994     20995     20996
     20992     20994     20995     20997     20992     21000     21003     21004
     20993     20992     20994     20995     20993     20992     21000     21001
     20993     20992     21000     21002     20993     20992     21000     21003
     20994     20992     21000     21001     20994     20992     21000     21002
     20994     20992     21000     21003     20994     20995     20997     20998
     20994     20995     20997     20999     20994     20995     20997     21009
     20995     20994     20992     21000     20995     20997     21009     21010
     20995     20997     21009     21011     20995     20997     21009     21012
     20996     20995     20997     20998     20996     20995     20997     20999
     20996     20995     20997     21009     20997     21009     21012     21013
     20997     21009     21012     21014     20997     21009     21012     21015
     20998     20997     21009     21010     20998     20997     21009     21011
     20998     20997     21009     21012     20999     20997     21009     21010
     20999     20997     21009     21011     20999     20997     21009     21012
     21000     21003     21004     21005     21000     21003     21004     21006
     21001     21000     21003     21004     21002     21000     21003     21004
     21003     21004     21006     21007     21003     21004     21006     21008
     21003     21004     21006     21056     21004     21006     21056     21057
     21004     21006     21056     21058     21004     21006     21056     21059
     21005     21004     21006     21007     21005     21004     21006     21008
     21005     21004     21006     21056     21006     21056     21059     21060
     21006     21056     21059     21061     21006     21056     21059     21062
     21007     21006     21056     21057     21007     21006     21056     21058
     21007     21006     21056     21059     21008     21006     21056     21057
     21008     21006     21056     21058     21008     21006     21056     21059
     21009     21012     21015     21016     21009     21012     21015     21017
     21009     21012     21015     21018     21010     21009     21012     21013
     21010     21009     21012     21014     21010     21009     21012     21015
     21011     21009     21012     21013     21011     21009     21012     21014
     21011     21009     21012     21015     21012     21015     21018     21019
     21012     21015     21018     21020     21012     21015     21018     21021
     21013     21012     21015     21016     21013     21012     21015     21017
     21013     21012     21015     21018     21014     21012     21015     21016
     21014     21012     21015     21017     21014     21012     21015     21018
     21015     21018     21021     21022     21015     21018     21021     21023
     21015     21018     21021     21024     21016     21015     21018     21019
     21016     21015     21018     21020     21016     21015     21018     21021
     21017     21015     21018     21019     21017     21015     21018     21020
     21017     21015     21018     21021     21018     21021     21024     21025
     21018     21021     21024     21026     21018     21021     21024     21027
     21019     21018     21021     21022     21019     21018     21021     21023
     21019     21018     21021     21024     21020     21018     21021     21022
     21020     21018     21021     21023     21020     21018     21021     21024
     21021     21024     21027     21028     21021     21024     21027     21029
     21022     21021     21024     21025     21022     21021     21024     21026
     21022     21021     21024     21027     21023     21021     21024     21025
     21023     21021     21024     21026     21023     21021     21024     21027
     21024     21027     21029     21030     21024     21027     21029     21031
     21025     21024     21027     21028     21025     21024     21027     21029
     21026     21024     21027     21028     21026     21024     21027     21029
     21027     21029     21031     21032     21027     21029     21031     21033
     21027     21029     21031     21034     21028     21027     21029     21030
     21028     21027     21029     21031     21029     21031     21034     21035
     21029     21031     21034     21036     21029     21031     21034     21037
     21030     21029     21031     21032     21030     21029     21031     21033
     21030     21029     21031     21034     21031     21034     21037     21038
     21031     21034     21037     21039     21031     21034     21037     21040
     21032     21031     21034     21035     21032     21031     21034     21036
     21032     21031     21034     21037     21033     21031     21034     21035
     21033     21031     21034     21036     21033     21031     21034     21037
     21034     21037     21040     21041     21034     21037     21040     21042
     21034     21037     21040     21043     21035     21034     21037     21038
     21035     21034     21037     21039     21035     21034     21037     21040
     21036     21034     21037     21038     21036     21034     21037     21039
     21036     21034     21037     21040     21037     21040     21043     21044
     21037     21040     21043     21045     21037     21040     21043     21046
     21038     21037     21040     21041     21038     21037     21040     21042
     21038     21037     21040     21043     21039     21037     21040     21041
     21039     21037     21040     21042     21039     21037     21040     21043
     21040     21043     21046     21047     21040     21043     21046     21048
     21040     21043     21046     21049     21041     21040     21043     21044
     21041     21040     21043     21045     21041     21040     21043     21046
     21042     21040     21043     21044     21042     21040     21043     21045
     21042     21040     21043     21046     21043     21046     21049     21050
     21043     21046     21049     21051     21043     21046     21049     21052
     21044     21043     21046     21047     21044     21043     21046     21048
     21044     21043     21046     21049     21045     21043     21046     21047
     21045     21043     21046     21048     21045     21043     21046     21049
     21046     21049     21052     21053     21046     21049     21052     21054
     21046     21049     21052     21055     21047     21046     21049     21050
     21047     21046     21049     21051     21047     21046     21049     21052
     21048     21046     21049     21050     21048     21046     21049     21051
     21048     21046     21049     21052     21050     21049     21052     21053
     21050     21049     21052     21054     21050     21049     21052     21055
     21051     21049     21052     21053     21051     21049     21052     21054
     21051     21049     21052     21055     21056     21059     21062     21063
     21056     21059     21062     21064     21056     21059     21062     21065
     21057     21056     21059     21060     21057     21056     21059     21061
     21057     21056     21059     21062     21058     21056     21059     21060
     21058     21056     21059     21061     21058     21056     21059     21062
     21059     21062     21065     21066     21059     21062     21065     21067
     21059     21062     21065     21068     21060     21059     21062     21063
     21060     21059     21062     21064     21060     21059     21062     21065
     21061     21059     21062     21063     21061     21059     21062     21064
     21061     21059     21062     21065     21062     21065     21068     21069
     21062     21065     21068     21070     21062     21065     21068     21071
     21063     21062     21065     21066     21063     21062     21065     21067
     21063     21062     21065     21068     21064     21062     21065     21066
     21064     21062     21065     21067     21064     21062     21065     21068
     21065     21068     21071     21072     21065     21068     21071     21073
     21065     21068     21071     21074     21066     21065     21068     21069
     21066     21065     21068     21070     21066     21065     21068     21071
     21067     21065     21068     21069     21067     21065     21068     21070
     21067     21065     21068     21071     21068     21071     21074     21075
     21068     21071     21074     21076     21069     21068     21071     21072
     21069     21068     21071     21073     21069     21068     21071     21074
     21070     21068     21071     21072     21070     21068     21071     21073
     21070     21068     21071     21074     21071     21074     21076     21077
     21071     21074     21076     21078     21072     21071     21074     21075
     21072     21071     21074     21076     21073     21071     21074     21075
     21073     21071     21074     21076     21074     21076     21078     21079
     21074     21076     21078     21080     21074     21076     21078     21081
     21075     21074     21076     21077     21075     21074     21076     21078
     21076     21078     21081     21082     21076     21078     21081     21083
     21076     21078     21081     21084     21077     21076     21078     21079
     21077     21076     21078     21080     21077     21076     21078     21081
     21078     21081     21084     21085     21078     21081     21084     21086
     21078     21081     21084     21087     21079     21078     21081     21082
     21079     21078     21081     21083     21079     21078     21081     21084
     21080     21078     21081     21082     21080     21078     21081     21083
     21080     21078     21081     21084     21081     21084     21087     21088
     21081     21084     21087     21089     21081     21084     21087     21090
     21082     21081     21084     21085     21082     21081     21084     21086
     21082     21081     21084     21087     21083     21081     21084     21085
     21083     21081     21084     21086     21083     21081     21084     21087
     21084     21087     21090     21091     21084     21087     21090     21092
     21084     21087     21090     21093     21085     21084     21087     21088
     21085     21084     21087     21089     21085     21084     21087     21090
     21086     21084     21087     21088     21086     21084     21087     21089
     21086     21084     21087     21090     21087     21090     21093     21094
     21087     21090     21093     21095     21087     21090     21093     21096
     21088     21087     21090     21091     21088     21087     21090     21092
     21088     21087     21090     21093     21089     21087     21090     21091
     21089     21087     21090     21092     21089     21087     21090     21093
     21090     21093     21096     21097     21090     21093     21096     21098
     21090     21093     21096     21099     21091     21090     21093     21094
     21091     21090     21093     21095     21091     21090     21093     21096
     21092     21090     21093     21094     21092     21090     21093     21095
     21092     21090     21093     21096     21093     21096     21099     21100
     21093     21096     21099     21101     21093     21096     21099     21102
     21094     21093     21096     21097     21094     21093     21096     21098
     21094     21093     21096     21099     21095     21093     21096     21097
     21095     21093     21096     21098     21095     21093     21096     21099
     21097     21096     21099     21100     21097     21096     21099     21101
     21097     21096     21099     21102     21098     21096     21099     21100
     21098     21096     21099     21101     21098     21096     21099     21102
     21103     21104     21119     21120     21103     21104     21119     21121
     21103     21104     21119     21125     21104     21103     21107     21108
     21104     21103     21107     21109     21104     21103     21107     21110
     21104     21103     21111     21112     21104     21103     21111     21113
     21104     21103     21111     21114     21104     21103     21115     21116
     21104     21103     21115     21117     21104     21103     21115     21118
     21104     21119     21125     21122     21105     21104     21103     21107
     21105     21104     21103     21111     21105     21104     21103     21115
     21105     21104     21119     21120     21105     21104     21119     21121
     21105     21104     21119     21125     21106     21104     21103     21107
     21106     21104     21103     21111     21106     21104     21103     21115
     21106     21104     21119     21120     21106     21104     21119     21121
     21106     21104     21119     21125     21107     21103     21104     21119
     21107     21103     21111     21112     21107     21103     21111     21113
     21107     21103     21111     21114     21107     21103     21115     21116
     21107     21103     21115     21117     21107     21103     21115     21118
     21108     21107     21103     21111     21108     21107     21103     21115
     21109     21107     21103     21111     21109     21107     21103     21115
     21110     21107     21103     21111     21110     21107     21103     21115
     21111     21103     21104     21119     21111     21103     21115     21116
     21111     21103     21115     21117     21111     21103     21115     21118
     21112     21111     21103     21115     21113     21111     21103     21115
     21114     21111     21103     21115     21115     21103     21104     21119
     21119     21125     21122     21123     21119     21125     21122     21124
     21119     21125     21122     21126     21120     21119     21125     21122
     21121     21119     21125     21122     21122     21126     21127     21128
     21122     21126     21127     21129     21122     21126     21127     21130
     21123     21122     21126     21127     21124     21122     21126     21127
     21125     21122     21126     21127     21126     21127     21130     21131
     21126     21127     21130     21132     21126     21127     21130     21138
     21127     21130     21132     21133     21127     21130     21138     21139
     21127     21130     21138     21140     21127     21130     21138     21141
     21128     21127     21130     21131     21128     21127     21130     21132
     21128     21127     21130     21138     21129     21127     21130     21131
     21129     21127     21130     21132     21129     21127     21130     21138
     21130     21132     21133     21134     21130     21132     21133     21135
     21130     21138     21141     21142     21131     21130     21132     21133
     21131     21130     21138     21139     21131     21130     21138     21140
     21131     21130     21138     21141     21132     21130     21138     21139
     21132     21130     21138     21140     21132     21130     21138     21141
     21132     21133     21135     21136     21132     21133     21135     21137
     21132     21133     21135     21147     21133     21132     21130     21138
     21133     21135     21147     21148     21133     21135     21147     21149
     21133     21135     21147     21150     21134     21133     21135     21136
     21134     21133     21135     21137     21134     21133     21135     21147
     21135     21147     21150     21151     21135     21147     21150     21152
     21135     21147     21150     21153     21136     21135     21147     21148
     21136     21135     21147     21149     21136     21135     21147     21150
     21137     21135     21147     21148     21137     21135     21147     21149
     21137     21135     21147     21150     21138     21141     21142     21143
     21138     21141     21142     21144     21139     21138     21141     21142
     21140     21138     21141     21142     21141     21142     21144     21145
     21141     21142     21144     21146     21141     21142     21144     21194
     21142     21144     21194     21195     21142     21144     21194     21196
     21142     21144     21194     21197     21143     21142     21144     21145
     21143     21142     21144     21146     21143     21142     21144     21194
     21144     21194     21197     21198     21144     21194     21197     21199
     21144     21194     21197     21200     21145     21144     21194     21195
     21145     21144     21194     21196     21145     21144     21194     21197
     21146     21144     21194     21195     21146     21144     21194     21196
     21146     21144     21194     21197     21147     21150     21153     21154
     21147     21150     21153     21155     21147     21150     21153     21156
     21148     21147     21150     21151     21148     21147     21150     21152
     21148     21147     21150     21153     21149     21147     21150     21151
     21149     21147     21150     21152     21149     21147     21150     21153
     21150     21153     21156     21157     21150     21153     21156     21158
     21150     21153     21156     21159     21151     21150     21153     21154
     21151     21150     21153     21155     21151     21150     21153     21156
     21152     21150     21153     21154     21152     21150     21153     21155
     21152     21150     21153     21156     21153     21156     21159     21160
     21153     21156     21159     21161     21153     21156     21159     21162
     21154     21153     21156     21157     21154     21153     21156     21158
     21154     21153     21156     21159     21155     21153     21156     21157
     21155     21153     21156     21158     21155     21153     21156     21159
     21156     21159     21162     21163     21156     21159     21162     21164
     21156     21159     21162     21165     21157     21156     21159     21160
     21157     21156     21159     21161     21157     21156     21159     21162
     21158     21156     21159     21160     21158     21156     21159     21161
     21158     21156     21159     21162     21159     21162     21165     21166
     21159     21162     21165     21167     21160     21159     21162     21163
     21160     21159     21162     21164     21160     21159     21162     21165
     21161     21159     21162     21163     21161     21159     21162     21164
     21161     21159     21162     21165     21162     21165     21167     21168
     21162     21165     21167     21169     21163     21162     21165     21166
     21163     21162     21165     21167     21164     21162     21165     21166
     21164     21162     21165     21167     21165     21167     21169     21170
     21165     21167     21169     21171     21165     21167     21169     21172
     21166     21165     21167     21168     21166     21165     21167     21169
     21167     21169     21172     21173     21167     21169     21172     21174
     21167     21169     21172     21175     21168     21167     21169     21170
     21168     21167     21169     21171     21168     21167     21169     21172
     21169     21172     21175     21176     21169     21172     21175     21177
     21169     21172     21175     21178     21170     21169     21172     21173
     21170     21169     21172     21174     21170     21169     21172     21175
     21171     21169     21172     21173     21171     21169     21172     21174
     21171     21169     21172     21175     21172     21175     21178     21179
     21172     21175     21178     21180     21172     21175     21178     21181
     21173     21172     21175     21176     21173     21172     21175     21177
     21173     21172     21175     21178     21174     21172     21175     21176
     21174     21172     21175     21177     21174     21172     21175     21178
     21175     21178     21181     21182     21175     21178     21181     21183
     21175     21178     21181     21184     21176     21175     21178     21179
     21176     21175     21178     21180     21176     21175     21178     21181
     21177     21175     21178     21179     21177     21175     21178     21180
     21177     21175     21178     21181     21178     21181     21184     21185
     21178     21181     21184     21186     21178     21181     21184     21187
     21179     21178     21181     21182     21179     21178     21181     21183
     21179     21178     21181     21184     21180     21178     21181     21182
     21180     21178     21181     21183     21180     21178     21181     21184
     21181     21184     21187     21188     21181     21184     21187     21189
     21181     21184     21187     21190     21182     21181     21184     21185
     21182     21181     21184     21186     21182     21181     21184     21187
     21183     21181     21184     21185     21183     21181     21184     21186
     21183     21181     21184     21187     21184     21187     21190     21191
     21184     21187     21190     21192     21184     21187     21190     21193
     21185     21184     21187     21188     21185     21184     21187     21189
     21185     21184     21187     21190     21186     21184     21187     21188
     21186     21184     21187     21189     21186     21184     21187     21190
     21188     21187     21190     21191     21188     21187     21190     21192
     21188     21187     21190     21193     21189     21187     21190     21191
     21189     21187     21190     21192     21189     21187     21190     21193
     21194     21197     21200     21201     21194     21197     21200     21202
     21194     21197     21200     21203     21195     21194     21197     21198
     21195     21194     21197     21199     21195     21194     21197     21200
     21196     21194     21197     21198     21196     21194     21197     21199
     21196     21194     21197     21200     21197     21200     21203     21204
     21197     21200     21203     21205     21197     21200     21203     21206
     21198     21197     21200     21201     21198     21197     21200     21202
     21198     21197     21200     21203     21199     21197     21200     21201
     21199     21197     21200     21202     21199     21197     21200     21203
     21200     21203     21206     21207     21200     21203     21206     21208
     21200     21203     21206     21209     21201     21200     21203     21204
     21201     21200     21203     21205     21201     21200     21203     21206
     21202     21200     21203     21204     21202     21200     21203     21205
     21202     21200     21203     21206     21203     21206     21209     21210
     21203     21206     21209     21211     21203     21206     21209     21212
     21204     21203     21206     21207     21204     21203     21206     21208
     21204     21203     21206     21209     21205     21203     21206     21207
     21205     21203     21206     21208     21205     21203     21206     21209
     21206     21209     21212     21213     21206     21209     21212     21214
     21207     21206     21209     21210     21207     21206     21209     21211
     21207     21206     21209     21212     21208     21206     21209     21210
     21208     21206     21209     21211     21208     21206     21209     21212
     21209     21212     21214     21215     21209     21212     21214     21216
     21210     21209     21212     21213     21210     21209     21212     21214
     21211     21209     21212     21213     21211     21209     21212     21214
     21212     21214     21216     21217     21212     21214     21216     21218
     21212     21214     21216     21219     21213     21212     21214     21215
     21213     21212     21214     21216     21214     21216     21219     21220
     21214     21216     21219     21221     21214     21216     21219     21222
     21215     21214     21216     21217     21215     21214     21216     21218
     21215     21214     21216     21219     21216     21219     21222     21223
     21216     21219     21222     21224     21216     21219     21222     21225
     21217     21216     21219     21220     21217     21216     21219     21221
     21217     21216     21219     21222     21218     21216     21219     21220
     21218     21216     21219     21221     21218     21216     21219     21222
     21219     21222     21225     21226     21219     21222     21225     21227
     21219     21222     21225     21228     21220     21219     21222     21223
     21220     21219     21222     21224     21220     21219     21222     21225
     21221     21219     21222     21223     21221     21219     21222     21224
     21221     21219     21222     21225     21222     21225     21228     21229
     21222     21225     21228     21230     21222     21225     21228     21231
     21223     21222     21225     21226     21223     21222     21225     21227
     21223     21222     21225     21228     21224     21222     21225     21226
     21224     21222     21225     21227     21224     21222     21225     21228
     21225     21228     21231     21232     21225     21228     21231     21233
     21225     21228     21231     21234     21226     21225     21228     21229
     21226     21225     21228     21230     21226     21225     21228     21231
     21227     21225     21228     21229     21227     21225     21228     21230
     21227     21225     21228     21231     21228     21231     21234     21235
     21228     21231     21234     21236     21228     21231     21234     21237
     21229     21228     21231     21232     21229     21228     21231     21233
     21229     21228     21231     21234     21230     21228     21231     21232
     21230     21228     21231     21233     21230     21228     21231     21234
     21231     21234     21237     21238     21231     21234     21237     21239
     21231     21234     21237     21240     21232     21231     21234     21235
     21232     21231     21234     21236     21232     21231     21234     21237
     21233     21231     21234     21235     21233     21231     21234     21236
     21233     21231     21234     21237     21235     21234     21237     21238
     21235     21234     21237     21239     21235     21234     21237     21240
     21236     21234     21237     21238     21236     21234     21237     21239
     21236     21234     21237     21240     21241     21245     21248     21249
     21241     21245     21248     21250     21241     21245     21248     21255
     21242     21241     21245     21246     21242     21241     21245     21247
     21242     21241     21245     21248     21243     21241     21245     21246
     21243     21241     21245     21247     21243     21241     21245     21248
     21244     21241     21245     21246     21244     21241     21245     21247
     21244     21241     21245     21248     21245     21248     21255     21251
     21246     21245     21248     21249     21246     21245     21248     21250
     21246     21245     21248     21255     21247     21245     21248     21249
     21247     21245     21248     21250     21247     21245     21248     21255
     21248     21255     21251     21252     21248     21255     21251     21253
     21248     21255     21251     21254     21249     21248     21255     21251
     21250     21248     21255     21251     21251     21254     21256     21257
     21251     21254     21256     21258     21251     21254     21256     21259
     21252     21251     21254     21256     21253     21251     21254     21256
     21254     21256     21259     21260     21254     21256     21259     21261
     21254     21256     21259     21267     21255     21251     21254     21256
     21256     21259     21261     21262     21256     21259     21267     21268
     21256     21259     21267     21269     21256     21259     21267     21270
     21257     21256     21259     21260     21257     21256     21259     21261
     21257     21256     21259     21267     21258     21256     21259     21260
     21258     21256     21259     21261     21258     21256     21259     21267
     21259     21261     21262     21263     21259     21261     21262     21264
     21259     21267     21270     21271     21260     21259     21261     21262
     21260     21259     21267     21268     21260     21259     21267     21269
     21260     21259     21267     21270     21261     21259     21267     21268
     21261     21259     21267     21269     21261     21259     21267     21270
     21261     21262     21264     21265     21261     21262     21264     21266
     21261     21262     21264     21276     21262     21261     21259     21267
     21262     21264     21276     21277     21262     21264     21276     21278
     21262     21264     21276     21279     21263     21262     21264     21265
     21263     21262     21264     21266     21263     21262     21264     21276
     21264     21276     21279     21280     21264     21276     21279     21281
     21264     21276     21279     21282     21265     21264     21276     21277
     21265     21264     21276     21278     21265     21264     21276     21279
     21266     21264     21276     21277     21266     21264     21276     21278
     21266     21264     21276     21279     21267     21270     21271     21272
     21267     21270     21271     21273     21268     21267     21270     21271
     21269     21267     21270     21271     21270     21271     21273     21274
     21270     21271     21273     21275     21270     21271     21273     21323
     21271     21273     21323     21324     21271     21273     21323     21325
     21271     21273     21323     21326     21272     21271     21273     21274
     21272     21271     21273     21275     21272     21271     21273     21323
     21273     21323     21326     21327     21273     21323     21326     21328
     21273     21323     21326     21329     21274     21273     21323     21324
     21274     21273     21323     21325     21274     21273     21323     21326
     21275     21273     21323     21324     21275     21273     21323     21325
     21275     21273     21323     21326     21276     21279     21282     21283
     21276     21279     21282     21284     21276     21279     21282     21285
     21277     21276     21279     21280     21277     21276     21279     21281
     21277     21276     21279     21282     21278     21276     21279     21280
     21278     21276     21279     21281     21278     21276     21279     21282
     21279     21282     21285     21286     21279     21282     21285     21287
     21279     21282     21285     21288     21280     21279     21282     21283
     21280     21279     21282     21284     21280     21279     21282     21285
     21281     21279     21282     21283     21281     21279     21282     21284
     21281     21279     21282     21285     21282     21285     21288     21289
     21282     21285     21288     21290     21282     21285     21288     21291
     21283     21282     21285     21286     21283     21282     21285     21287
     21283     21282     21285     21288     21284     21282     21285     21286
     21284     21282     21285     21287     21284     21282     21285     21288
     21285     21288     21291     21292     21285     21288     21291     21293
     21285     21288     21291     21294     21286     21285     21288     21289
     21286     21285     21288     21290     21286     21285     21288     21291
     21287     21285     21288     21289     21287     21285     21288     21290
     21287     21285     21288     21291     21288     21291     21294     21295
     21288     21291     21294     21296     21289     21288     21291     21292
     21289     21288     21291     21293     21289     21288     21291     21294
     21290     21288     21291     21292     21290     21288     21291     21293
     21290     21288     21291     21294     21291     21294     21296     21297
     21291     21294     21296     21298     21292     21291     21294     21295
     21292     21291     21294     21296     21293     21291     21294     21295
     21293     21291     21294     21296     21294     21296     21298     21299
     21294     21296     21298     21300     21294     21296     21298     21301
     21295     21294     21296     21297     21295     21294     21296     21298
     21296     21298     21301     21302     21296     21298     21301     21303
     21296     21298     21301     21304     21297     21296     21298     21299
     21297     21296     21298     21300     21297     21296     21298     21301
     21298     21301     21304     21305     21298     21301     21304     21306
     21298     21301     21304     21307     21299     21298     21301     21302
     21299     21298     21301     21303     21299     21298     21301     21304
     21300     21298     21301     21302     21300     21298     21301     21303
     21300     21298     21301     21304     21301     21304     21307     21308
     21301     21304     21307     21309     21301     21304     21307     21310
     21302     21301     21304     21305     21302     21301     21304     21306
     21302     21301     21304     21307     21303     21301     21304     21305
     21303     21301     21304     21306     21303     21301     21304     21307
     21304     21307     21310     21311     21304     21307     21310     21312
     21304     21307     21310     21313     21305     21304     21307     21308
     21305     21304     21307     21309     21305     21304     21307     21310
     21306     21304     21307     21308     21306     21304     21307     21309
     21306     21304     21307     21310     21307     21310     21313     21314
     21307     21310     21313     21315     21307     21310     21313     21316
     21308     21307     21310     21311     21308     21307     21310     21312
     21308     21307     21310     21313     21309     21307     21310     21311
     21309     21307     21310     21312     21309     21307     21310     21313
     21310     21313     21316     21317     21310     21313     21316     21318
     21310     21313     21316     21319     21311     21310     21313     21314
     21311     21310     21313     21315     21311     21310     21313     21316
     21312     21310     21313     21314     21312     21310     21313     21315
     21312     21310     21313     21316     21313     21316     21319     21320
     21313     21316     21319     21321     21313     21316     21319     21322
     21314     21313     21316     21317     21314     21313     21316     21318
     21314     21313     21316     21319     21315     21313     21316     21317
     21315     21313     21316     21318     21315     21313     21316     21319
     21317     21316     21319     21320     21317     21316     21319     21321
     21317     21316     21319     21322     21318     21316     21319     21320
     21318     21316     21319     21321     21318     21316     21319     21322
     21323     21326     21329     21330     21323     21326     21329     21331
     21323     21326     21329     21332     21324     21323     21326     21327
     21324     21323     21326     21328     21324     21323     21326     21329
     21325     21323     21326     21327     21325     21323     21326     21328
     21325     21323     21326     21329     21326     21329     21332     21333
     21326     21329     21332     21334     21326     21329     21332     21335
     21327     21326     21329     21330     21327     21326     21329     21331
     21327     21326     21329     21332     21328     21326     21329     21330
     21328     21326     21329     21331     21328     21326     21329     21332
     21329     21332     21335     21336     21329     21332     21335     21337
     21329     21332     21335     21338     21330     21329     21332     21333
     21330     21329     21332     21334     21330     21329     21332     21335
     21331     21329     21332     21333     21331     21329     21332     21334
     21331     21329     21332     21335     21332     21335     21338     21339
     21332     21335     21338     21340     21332     21335     21338     21341
     21333     21332     21335     21336     21333     21332     21335     21337
     21333     21332     21335     21338     21334     21332     21335     21336
     21334     21332     21335     21337     21334     21332     21335     21338
     21335     21338     21341     21342     21335     21338     21341     21343
     21336     21335     21338     21339     21336     21335     21338     21340
     21336     21335     21338     21341     21337     21335     21338     21339
     21337     21335     21338     21340     21337     21335     21338     21341
     21338     21341     21343     21344     21338     21341     21343     21345
     21339     21338     21341     21342     21339     21338     21341     21343
     21340     21338     21341     21342     21340     21338     21341     21343
     21341     21343     21345     21346     21341     21343     21345     21347
     21341     21343     21345     21348     21342     21341     21343     21344
     21342     21341     21343     21345     21343     21345     21348     21349
     21343     21345     21348     21350     21343     21345     21348     21351
     21344     21343     21345     21346     21344     21343     21345     21347
     21344     21343     21345     21348     21345     21348     21351     21352
     21345     21348     21351     21353     21345     21348     21351     21354
     21346     21345     21348     21349     21346     21345     21348     21350
     21346     21345     21348     21351     21347     21345     21348     21349
     21347     21345     21348     21350     21347     21345     21348     21351
     21348     21351     21354     21355     21348     21351     21354     21356
     21348     21351     21354     21357     21349     21348     21351     21352
     21349     21348     21351     21353     21349     21348     21351     21354
     21350     21348     21351     21352     21350     21348     21351     21353
     21350     21348     21351     21354     21351     21354     21357     21358
     21351     21354     21357     21359     21351     21354     21357     21360
     21352     21351     21354     21355     21352     21351     21354     21356
     21352     21351     21354     21357     21353     21351     21354     21355
     21353     21351     21354     21356     21353     21351     21354     21357
     21354     21357     21360     21361     21354     21357     21360     21362
     21354     21357     21360     21363     21355     21354     21357     21358
     21355     21354     21357     21359     21355     21354     21357     21360
     21356     21354     21357     21358     21356     21354     21357     21359
     21356     21354     21357     21360     21357     21360     21363     21364
     21357     21360     21363     21365     21357     21360     21363     21366
     21358     21357     21360     21361     21358     21357     21360     21362
     21358     21357     21360     21363     21359     21357     21360     21361
     21359     21357     21360     21362     21359     21357     21360     21363
     21360     21363     21366     21367     21360     21363     21366     21368
     21360     21363     21366     21369     21361     21360     21363     21364
     21361     21360     21363     21365     21361     21360     21363     21366
     21362     21360     21363     21364     21362     21360     21363     21365
     21362     21360     21363     21366     21364     21363     21366     21367
     21364     21363     21366     21368     21364     21363     21366     21369
     21365     21363     21366     21367     21365     21363     21366     21368
     21365     21363     21366     21369     21370     21383     21386     21387
     21370     21383     21386     21388     21370     21383     21386     21393
     21371     21370     21375     21376     21371     21370     21375     21377
     21371     21370     21375     21378     21371     21370     21379     21380
     21371     21370     21379     21381     21371     21370     21379     21382
     21371     21370     21383     21384     21371     21370     21383     21385
     21371     21370     21383     21386     21372     21371     21370     21375
     21372     21371     21370     21379     21372     21371     21370     21383
     21373     21371     21370     21375     21373     21371     21370     21379
     21373     21371     21370     21383     21374     21371     21370     21375
     21374     21371     21370     21379     21374     21371     21370     21383
     21375     21370     21379     21380     21375     21370     21379     21381
     21375     21370     21379     21382     21375     21370     21383     21384
     21375     21370     21383     21385     21375     21370     21383     21386
     21376     21375     21370     21379     21376     21375     21370     21383
     21377     21375     21370     21379     21377     21375     21370     21383
     21378     21375     21370     21379     21378     21375     21370     21383
     21379     21370     21383     21384     21379     21370     21383     21385
     21379     21370     21383     21386     21380     21379     21370     21383
     21381     21379     21370     21383     21382     21379     21370     21383
     21383     21386     21393     21389     21384     21383     21386     21387
     21384     21383     21386     21388     21384     21383     21386     21393
     21385     21383     21386     21387     21385     21383     21386     21388
     21385     21383     21386     21393     21386     21393     21389     21390
     21386     21393     21389     21391     21386     21393     21389     21392
     21387     21386     21393     21389     21388     21386     21393     21389
     21389     21392     21394     21395     21389     21392     21394     21396
     21389     21392     21394     21399     21390     21389     21392     21394
     21391     21389     21392     21394     21392     21394     21399     21397
     21392     21394     21399     21400     21392     21394     21399     21401
     21393     21389     21392     21394     21394     21399     21397     21398
     21394     21399     21397     21449     21394     21399     21401     21402
     21394     21399     21401     21403     21394     21399     21401     21405
     21395     21394     21399     21397     21395     21394     21399     21400
     21395     21394     21399     21401     21396     21394     21399     21397
     21396     21394     21399     21400     21396     21394     21399     21401
     21397     21399     21401     21402     21397     21399     21401     21403
     21397     21399     21401     21405     21397     21449     21451     21452
     21397     21449     21451     21453     21397     21449     21451     21454
     21398     21397     21399     21400     21398     21397     21399     21401
     21398     21397     21449     21450     21398     21397     21449     21451
     21399     21397     21449     21450     21399     21397     21449     21451
     21399     21401     21403     21404     21399     21401     21405     21406
     21399     21401     21405     21407     21400     21399     21397     21449
     21400     21399     21401     21402     21400     21399     21401     21403
     21400     21399     21401     21405     21401     21399     21397     21449
     21401     21405     21407     21408     21401     21405     21407     21409
     21402     21401     21403     21404     21402     21401     21405     21406
     21402     21401     21405     21407     21403     21401     21405     21406
     21403     21401     21405     21407     21404     21403     21401     21405
     21405     21407     21409     21410     21405     21407     21409     21411
     21405     21407     21409     21412     21406     21405     21407     21408
     21406     21405     21407     21409     21407     21409     21412     21413
     21407     21409     21412     21414     21407     21409     21412     21415
     21408     21407     21409     21410     21408     21407     21409     21411
     21408     21407     21409     21412     21409     21412     21415     21416
     21409     21412     21415     21417     21409     21412     21415     21418
     21410     21409     21412     21413     21410     21409     21412     21414
     21410     21409     21412     21415     21411     21409     21412     21413
     21411     21409     21412     21414     21411     21409     21412     21415
     21412     21415     21418     21419     21412     21415     21418     21420
     21412     21415     21418     21421     21413     21412     21415     21416
     21413     21412     21415     21417     21413     21412     21415     21418
     21414     21412     21415     21416     21414     21412     21415     21417
     21414     21412     21415     21418     21415     21418     21421     21422
     21415     21418     21421     21423     21415     21418     21421     21424
     21416     21415     21418     21419     21416     21415     21418     21420
     21416     21415     21418     21421     21417     21415     21418     21419
     21417     21415     21418     21420     21417     21415     21418     21421
     21418     21421     21424     21425     21418     21421     21424     21426
     21418     21421     21424     21427     21419     21418     21421     21422
     21419     21418     21421     21423     21419     21418     21421     21424
     21420     21418     21421     21422     21420     21418     21421     21423
     21420     21418     21421     21424     21421     21424     21427     21428
     21421     21424     21427     21429     21421     21424     21427     21430
     21422     21421     21424     21425     21422     21421     21424     21426
     21422     21421     21424     21427     21423     21421     21424     21425
     21423     21421     21424     21426     21423     21421     21424     21427
     21424     21427     21430     21431     21424     21427     21430     21432
     21424     21427     21430     21433     21425     21424     21427     21428
     21425     21424     21427     21429     21425     21424     21427     21430
     21426     21424     21427     21428     21426     21424     21427     21429
     21426     21424     21427     21430     21427     21430     21433     21434
     21427     21430     21433     21435     21427     21430     21433     21436
     21428     21427     21430     21431     21428     21427     21430     21432
     21428     21427     21430     21433     21429     21427     21430     21431
     21429     21427     21430     21432     21429     21427     21430     21433
     21430     21433     21436     21437     21430     21433     21436     21438
     21430     21433     21436     21439     21431     21430     21433     21434
     21431     21430     21433     21435     21431     21430     21433     21436
     21432     21430     21433     21434     21432     21430     21433     21435
     21432     21430     21433     21436     21433     21436     21439     21440
     21433     21436     21439     21441     21433     21436     21439     21442
     21434     21433     21436     21437     21434     21433     21436     21438
     21434     21433     21436     21439     21435     21433     21436     21437
     21435     21433     21436     21438     21435     21433     21436     21439
     21436     21439     21442     21443     21436     21439     21442     21444
     21436     21439     21442     21445     21437     21436     21439     21440
     21437     21436     21439     21441     21437     21436     21439     21442
     21438     21436     21439     21440     21438     21436     21439     21441
     21438     21436     21439     21442     21439     21442     21445     21446
     21439     21442     21445     21447     21439     21442     21445     21448
     21440     21439     21442     21443     21440     21439     21442     21444
     21440     21439     21442     21445     21441     21439     21442     21443
     21441     21439     21442     21444     21441     21439     21442     21445
     21443     21442     21445     21446     21443     21442     21445     21447
     21443     21442     21445     21448     21444     21442     21445     21446
     21444     21442     21445     21447     21444     21442     21445     21448
     21449     21451     21454     21455     21449     21451     21454     21456
     21449     21451     21454     21457     21450     21449     21451     21452
     21450     21449     21451     21453     21450     21449     21451     21454
     21451     21454     21457     21458     21451     21454     21457     21459
     21451     21454     21457     21460     21452     21451     21454     21455
     21452     21451     21454     21456     21452     21451     21454     21457
     21453     21451     21454     21455     21453     21451     21454     21456
     21453     21451     21454     21457     21454     21457     21460     21461
     21454     21457     21460     21462     21454     21457     21460     21463
     21455     21454     21457     21458     21455     21454     21457     21459
     21455     21454     21457     21460     21456     21454     21457     21458
     21456     21454     21457     21459     21456     21454     21457     21460
     21457     21460     21463     21464     21457     21460     21463     21465
     21457     21460     21463     21466     21458     21457     21460     21461
     21458     21457     21460     21462     21458     21457     21460     21463
     21459     21457     21460     21461     21459     21457     21460     21462
     21459     21457     21460     21463     21460     21463     21466     21467
     21460     21463     21466     21468     21460     21463     21466     21469
     21461     21460     21463     21464     21461     21460     21463     21465
     21461     21460     21463     21466     21462     21460     21463     21464
     21462     21460     21463     21465     21462     21460     21463     21466
     21463     21466     21469     21470     21463     21466     21469     21471
     21463     21466     21469     21472     21464     21463     21466     21467
     21464     21463     21466     21468     21464     21463     21466     21469
     21465     21463     21466     21467     21465     21463     21466     21468
     21465     21463     21466     21469     21466     21469     21472     21473
     21466     21469     21472     21474     21466     21469     21472     21475
     21467     21466     21469     21470     21467     21466     21469     21471
     21467     21466     21469     21472     21468     21466     21469     21470
     21468     21466     21469     21471     21468     21466     21469     21472
     21469     21472     21475     21476     21469     21472     21475     21477
     21469     21472     21475     21478     21470     21469     21472     21473
     21470     21469     21472     21474     21470     21469     21472     21475
     21471     21469     21472     21473     21471     21469     21472     21474
     21471     21469     21472     21475     21472     21475     21478     21479
     21472     21475     21478     21480     21472     21475     21478     21481
     21473     21472     21475     21476     21473     21472     21475     21477
     21473     21472     21475     21478     21474     21472     21475     21476
     21474     21472     21475     21477     21474     21472     21475     21478
     21475     21478     21481     21482     21475     21478     21481     21483
     21475     21478     21481     21484     21476     21475     21478     21479
     21476     21475     21478     21480     21476     21475     21478     21481
     21477     21475     21478     21479     21477     21475     21478     21480
     21477     21475     21478     21481     21478     21481     21484     21485
     21478     21481     21484     21486     21478     21481     21484     21487
     21479     21478     21481     21482     21479     21478     21481     21483
     21479     21478     21481     21484     21480     21478     21481     21482
     21480     21478     21481     21483     21480     21478     21481     21484
     21481     21484     21487     21488     21481     21484     21487     21489
     21481     21484     21487     21490     21482     21481     21484     21485
     21482     21481     21484     21486     21482     21481     21484     21487
     21483     21481     21484     21485     21483     21481     21484     21486
     21483     21481     21484     21487     21484     21487     21490     21491
     21484     21487     21490     21492     21484     21487     21490     21493
     21485     21484     21487     21488     21485     21484     21487     21489
     21485     21484     21487     21490     21486     21484     21487     21488
     21486     21484     21487     21489     21486     21484     21487     21490
     21487     21490     21493     21494     21487     21490     21493     21495
     21487     21490     21493     21496     21488     21487     21490     21491
     21488     21487     21490     21492     21488     21487     21490     21493
     21489     21487     21490     21491     21489     21487     21490     21492
     21489     21487     21490     21493     21490     21493     21496     21497
     21490     21493     21496     21498     21490     21493     21496     21499
     21491     21490     21493     21494     21491     21490     21493     21495
     21491     21490     21493     21496     21492     21490     21493     21494
     21492     21490     21493     21495     21492     21490     21493     21496
     21493     21496     21499     21500     21493     21496     21499     21501
     21493     21496     21499     21502     21494     21493     21496     21497
     21494     21493     21496     21498     21494     21493     21496     21499
     21495     21493     21496     21497     21495     21493     21496     21498
     21495     21493     21496     21499     21496     21499     21502     21503
     21496     21499     21502     21504     21496     21499     21502     21505
     21497     21496     21499     21500     21497     21496     21499     21501
     21497     21496     21499     21502     21498     21496     21499     21500
     21498     21496     21499     21501     21498     21496     21499     21502
     21499     21502     21505     21506     21499     21502     21505     21507
     21499     21502     21505     21508     21500     21499     21502     21503
     21500     21499     21502     21504     21500     21499     21502     21505
     21501     21499     21502     21503     21501     21499     21502     21504
     21501     21499     21502     21505     21502     21505     21508     21509
     21502     21505     21508     21510     21502     21505     21508     21511
     21503     21502     21505     21506     21503     21502     21505     21507
     21503     21502     21505     21508     21504     21502     21505     21506
     21504     21502     21505     21507     21504     21502     21505     21508
     21505     21508     21511     21512     21505     21508     21511     21513
     21505     21508     21511     21514     21506     21505     21508     21509
     21506     21505     21508     21510     21506     21505     21508     21511
     21507     21505     21508     21509     21507     21505     21508     21510
     21507     21505     21508     21511     21508     21511     21514     21515
     21508     21511     21514     21516     21508     21511     21514     21517
     21509     21508     21511     21512     21509     21508     21511     21513
     21509     21508     21511     21514     21510     21508     21511     21512
     21510     21508     21511     21513     21510     21508     21511     21514
     21512     21511     21514     21515     21512     21511     21514     21516
     21512     21511     21514     21517     21513     21511     21514     21515
     21513     21511     21514     21516     21513     21511     21514     21517
     21518     21522     21525     21526     21518     21522     21525     21556
     21518     21564     21561     21556     21518     21564     21561     21562
     21518     21564     21561     21563     21519     21518     21520     21521
     21519     21518     21522     21523     21519     21518     21522     21524
     21519     21518     21522     21525     21519     21518     21564     21561
     21519     21518     21564     21565     21519     21518     21564     21566
     21520     21518     21522     21523     21520     21518     21522     21524
     21520     21518     21522     21525     21520     21518     21564     21561
     21520     21518     21564     21565     21520     21518     21564     21566
     21521     21520     21518     21522     21521     21520     21518     21564
     21522     21518     21564     21561     21522     21518     21564     21565
     21522     21518     21564     21566     21522     21525     21526     21527
     21522     21525     21526     21528     21522     21525     21556     21554
     21522     21525     21556     21557     21522     21525     21556     21561
     21523     21522     21518     21564     21523     21522     21525     21526
     21523     21522     21525     21556     21524     21522     21518     21564
     21524     21522     21525     21526     21524     21522     21525     21556
     21525     21522     21518     21564     21525     21526     21528     21529
     21525     21526     21528     21530     21525     21526     21528     21531
     21525     21556     21554     21531     21525     21556     21554     21551
     21525     21556     21554     21555     21525     21556     21557     21558
     21525     21556     21557     21559     21525     21556     21557     21560
     21525     21556     21561     21562     21525     21556     21561     21563
     21525     21556     21561     21564     21526     21525     21556     21554
     21526     21525     21556     21557     21526     21525     21556     21561
     21526     21528     21531     21532     21526     21528     21531     21533
     21526     21528     21531     21554     21527     21526     21525     21556
     21527     21526     21528     21529     21527     21526     21528     21530
     21527     21526     21528     21531     21528     21526     21525     21556
     21528     21531     21533     21534     21528     21531     21533     21535
     21528     21531     21533     21543     21528     21531     21554     21551
     21528     21531     21554     21555     21528     21531     21554     21556
     21529     21528     21531     21532     21529     21528     21531     21533
     21529     21528     21531     21554     21530     21528     21531     21532
     21530     21528     21531     21533     21530     21528     21531     21554
     21531     21533     21535     21536     21531     21533     21535     21537
     21531     21533     21535     21538     21531     21533     21543     21541
     21531     21533     21543     21544     21531     21533     21543     21548
     21531     21554     21551     21548     21531     21554     21551     21552
     21531     21554     21551     21553     21531     21554     21556     21557
     21531     21554     21556     21561     21532     21531     21533     21534
     21532     21531     21533     21535     21532     21531     21533     21543
     21532     21531     21554     21551     21532     21531     21554     21555
     21532     21531     21554     21556     21533     21531     21554     21551
     21533     21531     21554     21555     21533     21531     21554     21556
     21533     21535     21538     21539     21533     21535     21538     21540
     21533     21535     21538     21541     21533     21543     21541     21538
     21533     21543     21541     21542     21533     21543     21541     21567
     21533     21543     21544     21545     21533     21543     21544     21546
     21533     21543     21544     21547     21533     21543     21548     21549
     21533     21543     21548     21550     21533     21543     21548     21551
     21534     21533     21531     21554     21534     21533     21535     21536
     21534     21533     21535     21537     21534     21533     21535     21538
     21534     21533     21543     21541     21534     21533     21543     21544
     21534     21533     21543     21548     21535     21533     21531     21554
     21535     21533     21543     21541     21535     21533     21543     21544
     21535     21533     21543     21548     21535     21538     21541     21542
     21535     21538     21541     21543     21535     21538     21541     21567
     21536     21535     21533     21543     21536     21535     21538     21539
     21536     21535     21538     21540     21536     21535     21538     21541
     21537     21535     21533     21543     21537     21535     21538     21539
     21537     21535     21538     21540     21537     21535     21538     21541
     21538     21535     21533     21543     21538     21541     21543     21544
     21538     21541     21543     21548     21538     21541     21567     21568
     21538     21541     21567     21569     21538     21541     21567     21573
     21539     21538     21541     21542     21539     21538     21541     21543
     21539     21538     21541     21567     21540     21538     21541     21542
     21540     21538     21541     21543     21540     21538     21541     21567
     21541     21543     21544     21545     21541     21543     21544     21546
     21541     21543     21544     21547     21541     21543     21548     21549
     21541     21543     21548     21550     21541     21543     21548     21551
     21541     21567     21569     21570     21541     21567     21569     21571
     21541     21567     21569     21572     21541     21567     21573     21574
     21541     21567     21573     21575     21541     21567     21573     21576
     21542     21541     21543     21544     21542     21541     21543     21548
     21542     21541     21567     21568     21542     21541     21567     21569
     21542     21541     21567     21573     21543     21533     21531     21554
     21543     21541     21567     21568     21543     21541     21567     21569
     21543     21541     21567     21573     21543     21548     21551     21552
     21543     21548     21551     21553     21543     21548     21551     21554
     21544     21543     21541     21567     21544     21543     21548     21549
     21544     21543     21548     21550     21544     21543     21548     21551
     21545     21544     21543     21548     21546     21544     21543     21548
     21547     21544     21543     21548     21548     21543     21541     21567
     21548     21551     21554     21555     21548     21551     21554     21556
     21549     21548     21551     21552     21549     21548     21551     21553
     21549     21548     21551     21554     21550     21548     21551     21552
     21550     21548     21551     21553     21550     21548     21551     21554
     21551     21554     21556     21557     21551     21554     21556     21561
     21552     21551     21554     21555     21552     21551     21554     21556
     21553     21551     21554     21555     21553     21551     21554     21556
     21554     21556     21557     21558     21554     21556     21557     21559
     21554     21556     21557     21560     21554     21556     21561     21562
     21554     21556     21561     21563     21554     21556     21561     21564
     21555     21554     21556     21557     21555     21554     21556     21561
     21556     21561     21564     21565     21556     21561     21564     21566
     21557     21556     21561     21562     21557     21556     21561     21563
     21557     21556     21561     21564     21558     21557     21556     21561
     21559     21557     21556     21561     21560     21557     21556     21561
     21562     21561     21564     21565     21562     21561     21564     21566
     21563     21561     21564     21565     21563     21561     21564     21566
     21567     21573     21576     21577     21567     21573     21576     21578
     21567     21573     21576     21579     21568     21567     21569     21570
     21568     21567     21569     21571     21568     21567     21569     21572
     21568     21567     21573     21574     21568     21567     21573     21575
     21568     21567     21573     21576     21569     21567     21573     21574
     21569     21567     21573     21575     21569     21567     21573     21576
     21570     21569     21567     21573     21571     21569     21567     21573
     21572     21569     21567     21573     21573     21576     21579     21580
     21573     21576     21579     21581     21573     21576     21579     21582
     21574     21573     21576     21577     21574     21573     21576     21578
     21574     21573     21576     21579     21575     21573     21576     21577
     21575     21573     21576     21578     21575     21573     21576     21579
     21576     21579     21582     21583     21576     21579     21582     21584
     21576     21579     21582     21588     21577     21576     21579     21580
     21577     21576     21579     21581     21577     21576     21579     21582
     21578     21576     21579     21580     21578     21576     21579     21581
     21578     21576     21579     21582     21579     21582     21584     21585
     21579     21582     21584     21586     21579     21582     21584     21587
     21579     21582     21588     21589     21579     21582     21588     21590
     21579     21582     21588     21591     21580     21579     21582     21583
     21580     21579     21582     21584     21580     21579     21582     21588
     21581     21579     21582     21583     21581     21579     21582     21584
     21581     21579     21582     21588     21583     21582     21584     21585
     21583     21582     21584     21586     21583     21582     21584     21587
     21583     21582     21588     21589     21583     21582     21588     21590
     21583     21582     21588     21591     21584     21582     21588     21589
     21584     21582     21588     21590     21584     21582     21588     21591
     21585     21584     21582     21588     21586     21584     21582     21588
     21587     21584     21582     21588     21592     21593     21608     21609
     21592     21593     21608     21610     21592     21593     21608     21614
     21593     21592     21596     21597     21593     21592     21596     21598
     21593     21592     21596     21599     21593     21592     21600     21601
     21593     21592     21600     21602     21593     21592     21600     21603
     21593     21592     21604     21605     21593     21592     21604     21606
     21593     21592     21604     21607     21593     21608     21614     21611
     21594     21593     21592     21596     21594     21593     21592     21600
     21594     21593     21592     21604     21594     21593     21608     21609
     21594     21593     21608     21610     21594     21593     21608     21614
     21595     21593     21592     21596     21595     21593     21592     21600
     21595     21593     21592     21604     21595     21593     21608     21609
     21595     21593     21608     21610     21595     21593     21608     21614
     21596     21592     21593     21608     21596     21592     21600     21601
     21596     21592     21600     21602     21596     21592     21600     21603
     21596     21592     21604     21605     21596     21592     21604     21606
     21596     21592     21604     21607     21597     21596     21592     21600
     21597     21596     21592     21604     21598     21596     21592     21600
     21598     21596     21592     21604     21599     21596     21592     21600
     21599     21596     21592     21604     21600     21592     21593     21608
     21600     21592     21604     21605     21600     21592     21604     21606
     21600     21592     21604     21607     21601     21600     21592     21604
     21602     21600     21592     21604     21603     21600     21592     21604
     21604     21592     21593     21608     21608     21614     21611     21612
     21608     21614     21611     21613     21608     21614     21611     21615
     21609     21608     21614     21611     21610     21608     21614     21611
     21611     21615     21616     21617     21611     21615     21616     21618
     21611     21615     21616     21619     21612     21611     21615     21616
     21613     21611     21615     21616     21614     21611     21615     21616
     21615     21616     21619     21620     21615     21616     21619     21621
     21615     21616     21619     21627     21616     21619     21621     21622
     21616     21619     21627     21628     21616     21619     21627     21629
     21616     21619     21627     21630     21617     21616     21619     21620
     21617     21616     21619     21621     21617     21616     21619     21627
     21618     21616     21619     21620     21618     21616     21619     21621
     21618     21616     21619     21627     21619     21621     21622     21623
     21619     21621     21622     21624     21619     21627     21630     21631
     21620     21619     21621     21622     21620     21619     21627     21628
     21620     21619     21627     21629     21620     21619     21627     21630
     21621     21619     21627     21628     21621     21619     21627     21629
     21621     21619     21627     21630     21621     21622     21624     21625
     21621     21622     21624     21626     21621     21622     21624     21636
     21622     21621     21619     21627     21622     21624     21636     21637
     21622     21624     21636     21638     21622     21624     21636     21639
     21623     21622     21624     21625     21623     21622     21624     21626
     21623     21622     21624     21636     21624     21636     21639     21640
     21624     21636     21639     21641     21624     21636     21639     21642
     21625     21624     21636     21637     21625     21624     21636     21638
     21625     21624     21636     21639     21626     21624     21636     21637
     21626     21624     21636     21638     21626     21624     21636     21639
     21627     21630     21631     21632     21627     21630     21631     21633
     21628     21627     21630     21631     21629     21627     21630     21631
     21630     21631     21633     21634     21630     21631     21633     21635
     21630     21631     21633     21683     21631     21633     21683     21684
     21631     21633     21683     21685     21631     21633     21683     21686
     21632     21631     21633     21634     21632     21631     21633     21635
     21632     21631     21633     21683     21633     21683     21686     21687
     21633     21683     21686     21688     21633     21683     21686     21689
     21634     21633     21683     21684     21634     21633     21683     21685
     21634     21633     21683     21686     21635     21633     21683     21684
     21635     21633     21683     21685     21635     21633     21683     21686
     21636     21639     21642     21643     21636     21639     21642     21644
     21636     21639     21642     21645     21637     21636     21639     21640
     21637     21636     21639     21641     21637     21636     21639     21642
     21638     21636     21639     21640     21638     21636     21639     21641
     21638     21636     21639     21642     21639     21642     21645     21646
     21639     21642     21645     21647     21639     21642     21645     21648
     21640     21639     21642     21643     21640     21639     21642     21644
     21640     21639     21642     21645     21641     21639     21642     21643
     21641     21639     21642     21644     21641     21639     21642     21645
     21642     21645     21648     21649     21642     21645     21648     21650
     21642     21645     21648     21651     21643     21642     21645     21646
     21643     21642     21645     21647     21643     21642     21645     21648
     21644     21642     21645     21646     21644     21642     21645     21647
     21644     21642     21645     21648     21645     21648     21651     21652
     21645     21648     21651     21653     21645     21648     21651     21654
     21646     21645     21648     21649     21646     21645     21648     21650
     21646     21645     21648     21651     21647     21645     21648     21649
     21647     21645     21648     21650     21647     21645     21648     21651
     21648     21651     21654     21655     21648     21651     21654     21656
     21649     21648     21651     21652     21649     21648     21651     21653
     21649     21648     21651     21654     21650     21648     21651     21652
     21650     21648     21651     21653     21650     21648     21651     21654
     21651     21654     21656     21657     21651     21654     21656     21658
     21652     21651     21654     21655     21652     21651     21654     21656
     21653     21651     21654     21655     21653     21651     21654     21656
     21654     21656     21658     21659     21654     21656     21658     21660
     21654     21656     21658     21661     21655     21654     21656     21657
     21655     21654     21656     21658     21656     21658     21661     21662
     21656     21658     21661     21663     21656     21658     21661     21664
     21657     21656     21658     21659     21657     21656     21658     21660
     21657     21656     21658     21661     21658     21661     21664     21665
     21658     21661     21664     21666     21658     21661     21664     21667
     21659     21658     21661     21662     21659     21658     21661     21663
     21659     21658     21661     21664     21660     21658     21661     21662
     21660     21658     21661     21663     21660     21658     21661     21664
     21661     21664     21667     21668     21661     21664     21667     21669
     21661     21664     21667     21670     21662     21661     21664     21665
     21662     21661     21664     21666     21662     21661     21664     21667
     21663     21661     21664     21665     21663     21661     21664     21666
     21663     21661     21664     21667     21664     21667     21670     21671
     21664     21667     21670     21672     21664     21667     21670     21673
     21665     21664     21667     21668     21665     21664     21667     21669
     21665     21664     21667     21670     21666     21664     21667     21668
     21666     21664     21667     21669     21666     21664     21667     21670
     21667     21670     21673     21674     21667     21670     21673     21675
     21667     21670     21673     21676     21668     21667     21670     21671
     21668     21667     21670     21672     21668     21667     21670     21673
     21669     21667     21670     21671     21669     21667     21670     21672
     21669     21667     21670     21673     21670     21673     21676     21677
     21670     21673     21676     21678     21670     21673     21676     21679
     21671     21670     21673     21674     21671     21670     21673     21675
     21671     21670     21673     21676     21672     21670     21673     21674
     21672     21670     21673     21675     21672     21670     21673     21676
     21673     21676     21679     21680     21673     21676     21679     21681
     21673     21676     21679     21682     21674     21673     21676     21677
     21674     21673     21676     21678     21674     21673     21676     21679
     21675     21673     21676     21677     21675     21673     21676     21678
     21675     21673     21676     21679     21677     21676     21679     21680
     21677     21676     21679     21681     21677     21676     21679     21682
     21678     21676     21679     21680     21678     21676     21679     21681
     21678     21676     21679     21682     21683     21686     21689     21690
     21683     21686     21689     21691     21683     21686     21689     21692
     21684     21683     21686     21687     21684     21683     21686     21688
     21684     21683     21686     21689     21685     21683     21686     21687
     21685     21683     21686     21688     21685     21683     21686     21689
     21686     21689     21692     21693     21686     21689     21692     21694
     21686     21689     21692     21695     21687     21686     21689     21690
     21687     21686     21689     21691     21687     21686     21689     21692
     21688     21686     21689     21690     21688     21686     21689     21691
     21688     21686     21689     21692     21689     21692     21695     21696
     21689     21692     21695     21697     21689     21692     21695     21698
     21690     21689     21692     21693     21690     21689     21692     21694
     21690     21689     21692     21695     21691     21689     21692     21693
     21691     21689     21692     21694     21691     21689     21692     21695
     21692     21695     21698     21699     21692     21695     21698     21700
     21692     21695     21698     21701     21693     21692     21695     21696
     21693     21692     21695     21697     21693     21692     21695     21698
     21694     21692     21695     21696     21694     21692     21695     21697
     21694     21692     21695     21698     21695     21698     21701     21702
     21695     21698     21701     21703     21696     21695     21698     21699
     21696     21695     21698     21700     21696     21695     21698     21701
     21697     21695     21698     21699     21697     21695     21698     21700
     21697     21695     21698     21701     21698     21701     21703     21704
     21698     21701     21703     21705     21699     21698     21701     21702
     21699     21698     21701     21703     21700     21698     21701     21702
     21700     21698     21701     21703     21701     21703     21705     21706
     21701     21703     21705     21707     21701     21703     21705     21708
     21702     21701     21703     21704     21702     21701     21703     21705
     21703     21705     21708     21709     21703     21705     21708     21710
     21703     21705     21708     21711     21704     21703     21705     21706
     21704     21703     21705     21707     21704     21703     21705     21708
     21705     21708     21711     21712     21705     21708     21711     21713
     21705     21708     21711     21714     21706     21705     21708     21709
     21706     21705     21708     21710     21706     21705     21708     21711
     21707     21705     21708     21709     21707     21705     21708     21710
     21707     21705     21708     21711     21708     21711     21714     21715
     21708     21711     21714     21716     21708     21711     21714     21717
     21709     21708     21711     21712     21709     21708     21711     21713
     21709     21708     21711     21714     21710     21708     21711     21712
     21710     21708     21711     21713     21710     21708     21711     21714
     21711     21714     21717     21718     21711     21714     21717     21719
     21711     21714     21717     21720     21712     21711     21714     21715
     21712     21711     21714     21716     21712     21711     21714     21717
     21713     21711     21714     21715     21713     21711     21714     21716
     21713     21711     21714     21717     21714     21717     21720     21721
     21714     21717     21720     21722     21714     21717     21720     21723
     21715     21714     21717     21718     21715     21714     21717     21719
     21715     21714     21717     21720     21716     21714     21717     21718
     21716     21714     21717     21719     21716     21714     21717     21720
     21717     21720     21723     21724     21717     21720     21723     21725
     21717     21720     21723     21726     21718     21717     21720     21721
     21718     21717     21720     21722     21718     21717     21720     21723
     21719     21717     21720     21721     21719     21717     21720     21722
     21719     21717     21720     21723     21720     21723     21726     21727
     21720     21723     21726     21728     21720     21723     21726     21729
     21721     21720     21723     21724     21721     21720     21723     21725
     21721     21720     21723     21726     21722     21720     21723     21724
     21722     21720     21723     21725     21722     21720     21723     21726
     21724     21723     21726     21727     21724     21723     21726     21728
     21724     21723     21726     21729     21725     21723     21726     21727
     21725     21723     21726     21728     21725     21723     21726     21729
     21730     21734     21737     21738     21730     21734     21737     21739
     21730     21734     21737     21744     21731     21730     21734     21735
     21731     21730     21734     21736     21731     21730     21734     21737
     21732     21730     21734     21735     21732     21730     21734     21736
     21732     21730     21734     21737     21733     21730     21734     21735
     21733     21730     21734     21736     21733     21730     21734     21737
     21734     21737     21744     21740     21735     21734     21737     21738
     21735     21734     21737     21739     21735     21734     21737     21744
     21736     21734     21737     21738     21736     21734     21737     21739
     21736     21734     21737     21744     21737     21744     21740     21741
     21737     21744     21740     21742     21737     21744     21740     21743
     21738     21737     21744     21740     21739     21737     21744     21740
     21740     21743     21745     21746     21740     21743     21745     21747
     21740     21743     21745     21748     21741     21740     21743     21745
     21742     21740     21743     21745     21743     21745     21748     21749
     21743     21745     21748     21750     21743     21745     21748     21756
     21744     21740     21743     21745     21745     21748     21750     21751
     21745     21748     21756     21757     21745     21748     21756     21758
     21745     21748     21756     21759     21746     21745     21748     21749
     21746     21745     21748     21750     21746     21745     21748     21756
     21747     21745     21748     21749     21747     21745     21748     21750
     21747     21745     21748     21756     21748     21750     21751     21752
     21748     21750     21751     21753     21748     21756     21759     21760
     21749     21748     21750     21751     21749     21748     21756     21757
     21749     21748     21756     21758     21749     21748     21756     21759
     21750     21748     21756     21757     21750     21748     21756     21758
     21750     21748     21756     21759     21750     21751     21753     21754
     21750     21751     21753     21755     21750     21751     21753     21765
     21751     21750     21748     21756     21751     21753     21765     21766
     21751     21753     21765     21767     21751     21753     21765     21768
     21752     21751     21753     21754     21752     21751     21753     21755
     21752     21751     21753     21765     21753     21765     21768     21769
     21753     21765     21768     21770     21753     21765     21768     21771
     21754     21753     21765     21766     21754     21753     21765     21767
     21754     21753     21765     21768     21755     21753     21765     21766
     21755     21753     21765     21767     21755     21753     21765     21768
     21756     21759     21760     21761     21756     21759     21760     21762
     21757     21756     21759     21760     21758     21756     21759     21760
     21759     21760     21762     21763     21759     21760     21762     21764
     21759     21760     21762     21812     21760     21762     21812     21813
     21760     21762     21812     21814     21760     21762     21812     21815
     21761     21760     21762     21763     21761     21760     21762     21764
     21761     21760     21762     21812     21762     21812     21815     21816
     21762     21812     21815     21817     21762     21812     21815     21818
     21763     21762     21812     21813     21763     21762     21812     21814
     21763     21762     21812     21815     21764     21762     21812     21813
     21764     21762     21812     21814     21764     21762     21812     21815
     21765     21768     21771     21772     21765     21768     21771     21773
     21765     21768     21771     21774     21766     21765     21768     21769
     21766     21765     21768     21770     21766     21765     21768     21771
     21767     21765     21768     21769     21767     21765     21768     21770
     21767     21765     21768     21771     21768     21771     21774     21775
     21768     21771     21774     21776     21768     21771     21774     21777
     21769     21768     21771     21772     21769     21768     21771     21773
     21769     21768     21771     21774     21770     21768     21771     21772
     21770     21768     21771     21773     21770     21768     21771     21774
     21771     21774     21777     21778     21771     21774     21777     21779
     21771     21774     21777     21780     21772     21771     21774     21775
     21772     21771     21774     21776     21772     21771     21774     21777
     21773     21771     21774     21775     21773     21771     21774     21776
     21773     21771     21774     21777     21774     21777     21780     21781
     21774     21777     21780     21782     21774     21777     21780     21783
     21775     21774     21777     21778     21775     21774     21777     21779
     21775     21774     21777     21780     21776     21774     21777     21778
     21776     21774     21777     21779     21776     21774     21777     21780
     21777     21780     21783     21784     21777     21780     21783     21785
     21778     21777     21780     21781     21778     21777     21780     21782
     21778     21777     21780     21783     21779     21777     21780     21781
     21779     21777     21780     21782     21779     21777     21780     21783
     21780     21783     21785     21786     21780     21783     21785     21787
     21781     21780     21783     21784     21781     21780     21783     21785
     21782     21780     21783     21784     21782     21780     21783     21785
     21783     21785     21787     21788     21783     21785     21787     21789
     21783     21785     21787     21790     21784     21783     21785     21786
     21784     21783     21785     21787     21785     21787     21790     21791
     21785     21787     21790     21792     21785     21787     21790     21793
     21786     21785     21787     21788     21786     21785     21787     21789
     21786     21785     21787     21790     21787     21790     21793     21794
     21787     21790     21793     21795     21787     21790     21793     21796
     21788     21787     21790     21791     21788     21787     21790     21792
     21788     21787     21790     21793     21789     21787     21790     21791
     21789     21787     21790     21792     21789     21787     21790     21793
     21790     21793     21796     21797     21790     21793     21796     21798
     21790     21793     21796     21799     21791     21790     21793     21794
     21791     21790     21793     21795     21791     21790     21793     21796
     21792     21790     21793     21794     21792     21790     21793     21795
     21792     21790     21793     21796     21793     21796     21799     21800
     21793     21796     21799     21801     21793     21796     21799     21802
     21794     21793     21796     21797     21794     21793     21796     21798
     21794     21793     21796     21799     21795     21793     21796     21797
     21795     21793     21796     21798     21795     21793     21796     21799
     21796     21799     21802     21803     21796     21799     21802     21804
     21796     21799     21802     21805     21797     21796     21799     21800
     21797     21796     21799     21801     21797     21796     21799     21802
     21798     21796     21799     21800     21798     21796     21799     21801
     21798     21796     21799     21802     21799     21802     21805     21806
     21799     21802     21805     21807     21799     21802     21805     21808
     21800     21799     21802     21803     21800     21799     21802     21804
     21800     21799     21802     21805     21801     21799     21802     21803
     21801     21799     21802     21804     21801     21799     21802     21805
     21802     21805     21808     21809     21802     21805     21808     21810
     21802     21805     21808     21811     21803     21802     21805     21806
     21803     21802     21805     21807     21803     21802     21805     21808
     21804     21802     21805     21806     21804     21802     21805     21807
     21804     21802     21805     21808     21806     21805     21808     21809
     21806     21805     21808     21810     21806     21805     21808     21811
     21807     21805     21808     21809     21807     21805     21808     21810
     21807     21805     21808     21811     21812     21815     21818     21819
     21812     21815     21818     21820     21812     21815     21818     21821
     21813     21812     21815     21816     21813     21812     21815     21817
     21813     21812     21815     21818     21814     21812     21815     21816
     21814     21812     21815     21817     21814     21812     21815     21818
     21815     21818     21821     21822     21815     21818     21821     21823
     21815     21818     21821     21824     21816     21815     21818     21819
     21816     21815     21818     21820     21816     21815     21818     21821
     21817     21815     21818     21819     21817     21815     21818     21820
     21817     21815     21818     21821     21818     21821     21824     21825
     21818     21821     21824     21826     21818     21821     21824     21827
     21819     21818     21821     21822     21819     21818     21821     21823
     21819     21818     21821     21824     21820     21818     21821     21822
     21820     21818     21821     21823     21820     21818     21821     21824
     21821     21824     21827     21828     21821     21824     21827     21829
     21821     21824     21827     21830     21822     21821     21824     21825
     21822     21821     21824     21826     21822     21821     21824     21827
     21823     21821     21824     21825     21823     21821     21824     21826
     21823     21821     21824     21827     21824     21827     21830     21831
     21824     21827     21830     21832     21825     21824     21827     21828
     21825     21824     21827     21829     21825     21824     21827     21830
     21826     21824     21827     21828     21826     21824     21827     21829
     21826     21824     21827     21830     21827     21830     21832     21833
     21827     21830     21832     21834     21828     21827     21830     21831
     21828     21827     21830     21832     21829     21827     21830     21831
     21829     21827     21830     21832     21830     21832     21834     21835
     21830     21832     21834     21836     21830     21832     21834     21837
     21831     21830     21832     21833     21831     21830     21832     21834
     21832     21834     21837     21838     21832     21834     21837     21839
     21832     21834     21837     21840     21833     21832     21834     21835
     21833     21832     21834     21836     21833     21832     21834     21837
     21834     21837     21840     21841     21834     21837     21840     21842
     21834     21837     21840     21843     21835     21834     21837     21838
     21835     21834     21837     21839     21835     21834     21837     21840
     21836     21834     21837     21838     21836     21834     21837     21839
     21836     21834     21837     21840     21837     21840     21843     21844
     21837     21840     21843     21845     21837     21840     21843     21846
     21838     21837     21840     21841     21838     21837     21840     21842
     21838     21837     21840     21843     21839     21837     21840     21841
     21839     21837     21840     21842     21839     21837     21840     21843
     21840     21843     21846     21847     21840     21843     21846     21848
     21840     21843     21846     21849     21841     21840     21843     21844
     21841     21840     21843     21845     21841     21840     21843     21846
     21842     21840     21843     21844     21842     21840     21843     21845
     21842     21840     21843     21846     21843     21846     21849     21850
     21843     21846     21849     21851     21843     21846     21849     21852
     21844     21843     21846     21847     21844     21843     21846     21848
     21844     21843     21846     21849     21845     21843     21846     21847
     21845     21843     21846     21848     21845     21843     21846     21849
     21846     21849     21852     21853     21846     21849     21852     21854
     21846     21849     21852     21855     21847     21846     21849     21850
     21847     21846     21849     21851     21847     21846     21849     21852
     21848     21846     21849     21850     21848     21846     21849     21851
     21848     21846     21849     21852     21849     21852     21855     21856
     21849     21852     21855     21857     21849     21852     21855     21858
     21850     21849     21852     21853     21850     21849     21852     21854
     21850     21849     21852     21855     21851     21849     21852     21853
     21851     21849     21852     21854     21851     21849     21852     21855
     21853     21852     21855     21856     21853     21852     21855     21857
     21853     21852     21855     21858     21854     21852     21855     21856
     21854     21852     21855     21857     21854     21852     21855     21858
     21859     21860     21875     21876     21859     21860     21875     21877
     21859     21860     21875     21881     21860     21859     21863     21864
     21860     21859     21863     21865     21860     21859     21863     21866
     21860     21859     21867     21868     21860     21859     21867     21869
     21860     21859     21867     21870     21860     21859     21871     21872
     21860     21859     21871     21873     21860     21859     21871     21874
     21860     21875     21881     21878     21861     21860     21859     21863
     21861     21860     21859     21867     21861     21860     21859     21871
     21861     21860     21875     21876     21861     21860     21875     21877
     21861     21860     21875     21881     21862     21860     21859     21863
     21862     21860     21859     21867     21862     21860     21859     21871
     21862     21860     21875     21876     21862     21860     21875     21877
     21862     21860     21875     21881     21863     21859     21860     21875
     21863     21859     21867     21868     21863     21859     21867     21869
     21863     21859     21867     21870     21863     21859     21871     21872
     21863     21859     21871     21873     21863     21859     21871     21874
     21864     21863     21859     21867     21864     21863     21859     21871
     21865     21863     21859     21867     21865     21863     21859     21871
     21866     21863     21859     21867     21866     21863     21859     21871
     21867     21859     21860     21875     21867     21859     21871     21872
     21867     21859     21871     21873     21867     21859     21871     21874
     21868     21867     21859     21871     21869     21867     21859     21871
     21870     21867     21859     21871     21871     21859     21860     21875
     21875     21881     21878     21879     21875     21881     21878     21880
     21875     21881     21878     21882     21876     21875     21881     21878
     21877     21875     21881     21878     21878     21882     21883     21884
     21878     21882     21883     21885     21878     21882     21883     21886
     21879     21878     21882     21883     21880     21878     21882     21883
     21881     21878     21882     21883     21882     21883     21886     21887
     21882     21883     21886     21888     21882     21883     21886     21894
     21883     21886     21888     21889     21883     21886     21894     21895
     21883     21886     21894     21896     21883     21886     21894     21897
     21884     21883     21886     21887     21884     21883     21886     21888
     21884     21883     21886     21894     21885     21883     21886     21887
     21885     21883     21886     21888     21885     21883     21886     21894
     21886     21888     21889     21890     21886     21888     21889     21891
     21886     21894     21897     21898     21887     21886     21888     21889
     21887     21886     21894     21895     21887     21886     21894     21896
     21887     21886     21894     21897     21888     21886     21894     21895
     21888     21886     21894     21896     21888     21886     21894     21897
     21888     21889     21891     21892     21888     21889     21891     21893
     21888     21889     21891     21903     21889     21888     21886     21894
     21889     21891     21903     21904     21889     21891     21903     21905
     21889     21891     21903     21906     21890     21889     21891     21892
     21890     21889     21891     21893     21890     21889     21891     21903
     21891     21903     21906     21907     21891     21903     21906     21908
     21891     21903     21906     21909     21892     21891     21903     21904
     21892     21891     21903     21905     21892     21891     21903     21906
     21893     21891     21903     21904     21893     21891     21903     21905
     21893     21891     21903     21906     21894     21897     21898     21899
     21894     21897     21898     21900     21895     21894     21897     21898
     21896     21894     21897     21898     21897     21898     21900     21901
     21897     21898     21900     21902     21897     21898     21900     21950
     21898     21900     21950     21951     21898     21900     21950     21952
     21898     21900     21950     21953     21899     21898     21900     21901
     21899     21898     21900     21902     21899     21898     21900     21950
     21900     21950     21953     21954     21900     21950     21953     21955
     21900     21950     21953     21956     21901     21900     21950     21951
     21901     21900     21950     21952     21901     21900     21950     21953
     21902     21900     21950     21951     21902     21900     21950     21952
     21902     21900     21950     21953     21903     21906     21909     21910
     21903     21906     21909     21911     21903     21906     21909     21912
     21904     21903     21906     21907     21904     21903     21906     21908
     21904     21903     21906     21909     21905     21903     21906     21907
     21905     21903     21906     21908     21905     21903     21906     21909
     21906     21909     21912     21913     21906     21909     21912     21914
     21906     21909     21912     21915     21907     21906     21909     21910
     21907     21906     21909     21911     21907     21906     21909     21912
     21908     21906     21909     21910     21908     21906     21909     21911
     21908     21906     21909     21912     21909     21912     21915     21916
     21909     21912     21915     21917     21909     21912     21915     21918
     21910     21909     21912     21913     21910     21909     21912     21914
     21910     21909     21912     21915     21911     21909     21912     21913
     21911     21909     21912     21914     21911     21909     21912     21915
     21912     21915     21918     21919     21912     21915     21918     21920
     21912     21915     21918     21921     21913     21912     21915     21916
     21913     21912     21915     21917     21913     21912     21915     21918
     21914     21912     21915     21916     21914     21912     21915     21917
     21914     21912     21915     21918     21915     21918     21921     21922
     21915     21918     21921     21923     21916     21915     21918     21919
     21916     21915     21918     21920     21916     21915     21918     21921
     21917     21915     21918     21919     21917     21915     21918     21920
     21917     21915     21918     21921     21918     21921     21923     21924
     21918     21921     21923     21925     21919     21918     21921     21922
     21919     21918     21921     21923     21920     21918     21921     21922
     21920     21918     21921     21923     21921     21923     21925     21926
     21921     21923     21925     21927     21921     21923     21925     21928
     21922     21921     21923     21924     21922     21921     21923     21925
     21923     21925     21928     21929     21923     21925     21928     21930
     21923     21925     21928     21931     21924     21923     21925     21926
     21924     21923     21925     21927     21924     21923     21925     21928
     21925     21928     21931     21932     21925     21928     21931     21933
     21925     21928     21931     21934     21926     21925     21928     21929
     21926     21925     21928     21930     21926     21925     21928     21931
     21927     21925     21928     21929     21927     21925     21928     21930
     21927     21925     21928     21931     21928     21931     21934     21935
     21928     21931     21934     21936     21928     21931     21934     21937
     21929     21928     21931     21932     21929     21928     21931     21933
     21929     21928     21931     21934     21930     21928     21931     21932
     21930     21928     21931     21933     21930     21928     21931     21934
     21931     21934     21937     21938     21931     21934     21937     21939
     21931     21934     21937     21940     21932     21931     21934     21935
     21932     21931     21934     21936     21932     21931     21934     21937
     21933     21931     21934     21935     21933     21931     21934     21936
     21933     21931     21934     21937     21934     21937     21940     21941
     21934     21937     21940     21942     21934     21937     21940     21943
     21935     21934     21937     21938     21935     21934     21937     21939
     21935     21934     21937     21940     21936     21934     21937     21938
     21936     21934     21937     21939     21936     21934     21937     21940
     21937     21940     21943     21944     21937     21940     21943     21945
     21937     21940     21943     21946     21938     21937     21940     21941
     21938     21937     21940     21942     21938     21937     21940     21943
     21939     21937     21940     21941     21939     21937     21940     21942
     21939     21937     21940     21943     21940     21943     21946     21947
     21940     21943     21946     21948     21940     21943     21946     21949
     21941     21940     21943     21944     21941     21940     21943     21945
     21941     21940     21943     21946     21942     21940     21943     21944
     21942     21940     21943     21945     21942     21940     21943     21946
     21944     21943     21946     21947     21944     21943     21946     21948
     21944     21943     21946     21949     21945     21943     21946     21947
     21945     21943     21946     21948     21945     21943     21946     21949
     21950     21953     21956     21957     21950     21953     21956     21958
     21950     21953     21956     21959     21951     21950     21953     21954
     21951     21950     21953     21955     21951     21950     21953     21956
     21952     21950     21953     21954     21952     21950     21953     21955
     21952     21950     21953     21956     21953     21956     21959     21960
     21953     21956     21959     21961     21953     21956     21959     21962
     21954     21953     21956     21957     21954     21953     21956     21958
     21954     21953     21956     21959     21955     21953     21956     21957
     21955     21953     21956     21958     21955     21953     21956     21959
     21956     21959     21962     21963     21956     21959     21962     21964
     21956     21959     21962     21965     21957     21956     21959     21960
     21957     21956     21959     21961     21957     21956     21959     21962
     21958     21956     21959     21960     21958     21956     21959     21961
     21958     21956     21959     21962     21959     21962     21965     21966
     21959     21962     21965     21967     21959     21962     21965     21968
     21960     21959     21962     21963     21960     21959     21962     21964
     21960     21959     21962     21965     21961     21959     21962     21963
     21961     21959     21962     21964     21961     21959     21962     21965
     21962     21965     21968     21969     21962     21965     21968     21970
     21963     21962     21965     21966     21963     21962     21965     21967
     21963     21962     21965     21968     21964     21962     21965     21966
     21964     21962     21965     21967     21964     21962     21965     21968
     21965     21968     21970     21971     21965     21968     21970     21972
     21966     21965     21968     21969     21966     21965     21968     21970
     21967     21965     21968     21969     21967     21965     21968     21970
     21968     21970     21972     21973     21968     21970     21972     21974
     21968     21970     21972     21975     21969     21968     21970     21971
     21969     21968     21970     21972     21970     21972     21975     21976
     21970     21972     21975     21977     21970     21972     21975     21978
     21971     21970     21972     21973     21971     21970     21972     21974
     21971     21970     21972     21975     21972     21975     21978     21979
     21972     21975     21978     21980     21972     21975     21978     21981
     21973     21972     21975     21976     21973     21972     21975     21977
     21973     21972     21975     21978     21974     21972     21975     21976
     21974     21972     21975     21977     21974     21972     21975     21978
     21975     21978     21981     21982     21975     21978     21981     21983
     21975     21978     21981     21984     21976     21975     21978     21979
     21976     21975     21978     21980     21976     21975     21978     21981
     21977     21975     21978     21979     21977     21975     21978     21980
     21977     21975     21978     21981     21978     21981     21984     21985
     21978     21981     21984     21986     21978     21981     21984     21987
     21979     21978     21981     21982     21979     21978     21981     21983
     21979     21978     21981     21984     21980     21978     21981     21982
     21980     21978     21981     21983     21980     21978     21981     21984
     21981     21984     21987     21988     21981     21984     21987     21989
     21981     21984     21987     21990     21982     21981     21984     21985
     21982     21981     21984     21986     21982     21981     21984     21987
     21983     21981     21984     21985     21983     21981     21984     21986
     21983     21981     21984     21987     21984     21987     21990     21991
     21984     21987     21990     21992     21984     21987     21990     21993
     21985     21984     21987     21988     21985     21984     21987     21989
     21985     21984     21987     21990     21986     21984     21987     21988
     21986     21984     21987     21989     21986     21984     21987     21990
     21987     21990     21993     21994     21987     21990     21993     21995
     21987     21990     21993     21996     21988     21987     21990     21991
     21988     21987     21990     21992     21988     21987     21990     21993
     21989     21987     21990     21991     21989     21987     21990     21992
     21989     21987     21990     21993     21991     21990     21993     21994
     21991     21990     21993     21995     21991     21990     21993     21996
     21992     21990     21993     21994     21992     21990     21993     21995
     21992     21990     21993     21996     21997     22010     22013     22014
     21997     22010     22013     22015     21997     22010     22013     22020
     21998     21997     22002     22003     21998     21997     22002     22004
     21998     21997     22002     22005     21998     21997     22006     22007
     21998     21997     22006     22008     21998     21997     22006     22009
     21998     21997     22010     22011     21998     21997     22010     22012
     21998     21997     22010     22013     21999     21998     21997     22002
     21999     21998     21997     22006     21999     21998     21997     22010
     22000     21998     21997     22002     22000     21998     21997     22006
     22000     21998     21997     22010     22001     21998     21997     22002
     22001     21998     21997     22006     22001     21998     21997     22010
     22002     21997     22006     22007     22002     21997     22006     22008
     22002     21997     22006     22009     22002     21997     22010     22011
     22002     21997     22010     22012     22002     21997     22010     22013
     22003     22002     21997     22006     22003     22002     21997     22010
     22004     22002     21997     22006     22004     22002     21997     22010
     22005     22002     21997     22006     22005     22002     21997     22010
     22006     21997     22010     22011     22006     21997     22010     22012
     22006     21997     22010     22013     22007     22006     21997     22010
     22008     22006     21997     22010     22009     22006     21997     22010
     22010     22013     22020     22016     22011     22010     22013     22014
     22011     22010     22013     22015     22011     22010     22013     22020
     22012     22010     22013     22014     22012     22010     22013     22015
     22012     22010     22013     22020     22013     22020     22016     22017
     22013     22020     22016     22018     22013     22020     22016     22019
     22014     22013     22020     22016     22015     22013     22020     22016
     22016     22019     22021     22022     22016     22019     22021     22023
     22016     22019     22021     22026     22017     22016     22019     22021
     22018     22016     22019     22021     22019     22021     22026     22024
     22019     22021     22026     22027     22019     22021     22026     22028
     22020     22016     22019     22021     22021     22026     22024     22025
     22021     22026     22024     22076     22021     22026     22028     22029
     22021     22026     22028     22030     22021     22026     22028     22032
     22022     22021     22026     22024     22022     22021     22026     22027
     22022     22021     22026     22028     22023     22021     22026     22024
     22023     22021     22026     22027     22023     22021     22026     22028
     22024     22026     22028     22029     22024     22026     22028     22030
     22024     22026     22028     22032     22024     22076     22078     22079
     22024     22076     22078     22080     22024     22076     22078     22081
     22025     22024     22026     22027     22025     22024     22026     22028
     22025     22024     22076     22077     22025     22024     22076     22078
     22026     22024     22076     22077     22026     22024     22076     22078
     22026     22028     22030     22031     22026     22028     22032     22033
     22026     22028     22032     22034     22027     22026     22024     22076
     22027     22026     22028     22029     22027     22026     22028     22030
     22027     22026     22028     22032     22028     22026     22024     22076
     22028     22032     22034     22035     22028     22032     22034     22036
     22029     22028     22030     22031     22029     22028     22032     22033
     22029     22028     22032     22034     22030     22028     22032     22033
     22030     22028     22032     22034     22031     22030     22028     22032
     22032     22034     22036     22037     22032     22034     22036     22038
     22032     22034     22036     22039     22033     22032     22034     22035
     22033     22032     22034     22036     22034     22036     22039     22040
     22034     22036     22039     22041     22034     22036     22039     22042
     22035     22034     22036     22037     22035     22034     22036     22038
     22035     22034     22036     22039     22036     22039     22042     22043
     22036     22039     22042     22044     22036     22039     22042     22045
     22037     22036     22039     22040     22037     22036     22039     22041
     22037     22036     22039     22042     22038     22036     22039     22040
     22038     22036     22039     22041     22038     22036     22039     22042
     22039     22042     22045     22046     22039     22042     22045     22047
     22039     22042     22045     22048     22040     22039     22042     22043
     22040     22039     22042     22044     22040     22039     22042     22045
     22041     22039     22042     22043     22041     22039     22042     22044
     22041     22039     22042     22045     22042     22045     22048     22049
     22042     22045     22048     22050     22042     22045     22048     22051
     22043     22042     22045     22046     22043     22042     22045     22047
     22043     22042     22045     22048     22044     22042     22045     22046
     22044     22042     22045     22047     22044     22042     22045     22048
     22045     22048     22051     22052     22045     22048     22051     22053
     22045     22048     22051     22054     22046     22045     22048     22049
     22046     22045     22048     22050     22046     22045     22048     22051
     22047     22045     22048     22049     22047     22045     22048     22050
     22047     22045     22048     22051     22048     22051     22054     22055
     22048     22051     22054     22056     22048     22051     22054     22057
     22049     22048     22051     22052     22049     22048     22051     22053
     22049     22048     22051     22054     22050     22048     22051     22052
     22050     22048     22051     22053     22050     22048     22051     22054
     22051     22054     22057     22058     22051     22054     22057     22059
     22051     22054     22057     22060     22052     22051     22054     22055
     22052     22051     22054     22056     22052     22051     22054     22057
     22053     22051     22054     22055     22053     22051     22054     22056
     22053     22051     22054     22057     22054     22057     22060     22061
     22054     22057     22060     22062     22054     22057     22060     22063
     22055     22054     22057     22058     22055     22054     22057     22059
     22055     22054     22057     22060     22056     22054     22057     22058
     22056     22054     22057     22059     22056     22054     22057     22060
     22057     22060     22063     22064     22057     22060     22063     22065
     22057     22060     22063     22066     22058     22057     22060     22061
     22058     22057     22060     22062     22058     22057     22060     22063
     22059     22057     22060     22061     22059     22057     22060     22062
     22059     22057     22060     22063     22060     22063     22066     22067
     22060     22063     22066     22068     22060     22063     22066     22069
     22061     22060     22063     22064     22061     22060     22063     22065
     22061     22060     22063     22066     22062     22060     22063     22064
     22062     22060     22063     22065     22062     22060     22063     22066
     22063     22066     22069     22070     22063     22066     22069     22071
     22063     22066     22069     22072     22064     22063     22066     22067
     22064     22063     22066     22068     22064     22063     22066     22069
     22065     22063     22066     22067     22065     22063     22066     22068
     22065     22063     22066     22069     22066     22069     22072     22073
     22066     22069     22072     22074     22066     22069     22072     22075
     22067     22066     22069     22070     22067     22066     22069     22071
     22067     22066     22069     22072     22068     22066     22069     22070
     22068     22066     22069     22071     22068     22066     22069     22072
     22070     22069     22072     22073     22070     22069     22072     22074
     22070     22069     22072     22075     22071     22069     22072     22073
     22071     22069     22072     22074     22071     22069     22072     22075
     22076     22078     22081     22082     22076     22078     22081     22083
     22076     22078     22081     22084     22077     22076     22078     22079
     22077     22076     22078     22080     22077     22076     22078     22081
     22078     22081     22084     22085     22078     22081     22084     22086
     22078     22081     22084     22087     22079     22078     22081     22082
     22079     22078     22081     22083     22079     22078     22081     22084
     22080     22078     22081     22082     22080     22078     22081     22083
     22080     22078     22081     22084     22081     22084     22087     22088
     22081     22084     22087     22089     22081     22084     22087     22090
     22082     22081     22084     22085     22082     22081     22084     22086
     22082     22081     22084     22087     22083     22081     22084     22085
     22083     22081     22084     22086     22083     22081     22084     22087
     22084     22087     22090     22091     22084     22087     22090     22092
     22084     22087     22090     22093     22085     22084     22087     22088
     22085     22084     22087     22089     22085     22084     22087     22090
     22086     22084     22087     22088     22086     22084     22087     22089
     22086     22084     22087     22090     22087     22090     22093     22094
     22087     22090     22093     22095     22087     22090     22093     22096
     22088     22087     22090     22091     22088     22087     22090     22092
     22088     22087     22090     22093     22089     22087     22090     22091
     22089     22087     22090     22092     22089     22087     22090     22093
     22090     22093     22096     22097     22090     22093     22096     22098
     22090     22093     22096     22099     22091     22090     22093     22094
     22091     22090     22093     22095     22091     22090     22093     22096
     22092     22090     22093     22094     22092     22090     22093     22095
     22092     22090     22093     22096     22093     22096     22099     22100
     22093     22096     22099     22101     22093     22096     22099     22102
     22094     22093     22096     22097     22094     22093     22096     22098
     22094     22093     22096     22099     22095     22093     22096     22097
     22095     22093     22096     22098     22095     22093     22096     22099
     22096     22099     22102     22103     22096     22099     22102     22104
     22096     22099     22102     22105     22097     22096     22099     22100
     22097     22096     22099     22101     22097     22096     22099     22102
     22098     22096     22099     22100     22098     22096     22099     22101
     22098     22096     22099     22102     22099     22102     22105     22106
     22099     22102     22105     22107     22099     22102     22105     22108
     22100     22099     22102     22103     22100     22099     22102     22104
     22100     22099     22102     22105     22101     22099     22102     22103
     22101     22099     22102     22104     22101     22099     22102     22105
     22102     22105     22108     22109     22102     22105     22108     22110
     22102     22105     22108     22111     22103     22102     22105     22106
     22103     22102     22105     22107     22103     22102     22105     22108
     22104     22102     22105     22106     22104     22102     22105     22107
     22104     22102     22105     22108     22105     22108     22111     22112
     22105     22108     22111     22113     22105     22108     22111     22114
     22106     22105     22108     22109     22106     22105     22108     22110
     22106     22105     22108     22111     22107     22105     22108     22109
     22107     22105     22108     22110     22107     22105     22108     22111
     22108     22111     22114     22115     22108     22111     22114     22116
     22108     22111     22114     22117     22109     22108     22111     22112
     22109     22108     22111     22113     22109     22108     22111     22114
     22110     22108     22111     22112     22110     22108     22111     22113
     22110     22108     22111     22114     22111     22114     22117     22118
     22111     22114     22117     22119     22111     22114     22117     22120
     22112     22111     22114     22115     22112     22111     22114     22116
     22112     22111     22114     22117     22113     22111     22114     22115
     22113     22111     22114     22116     22113     22111     22114     22117
     22114     22117     22120     22121     22114     22117     22120     22122
     22114     22117     22120     22123     22115     22114     22117     22118
     22115     22114     22117     22119     22115     22114     22117     22120
     22116     22114     22117     22118     22116     22114     22117     22119
     22116     22114     22117     22120     22117     22120     22123     22124
     22117     22120     22123     22125     22117     22120     22123     22126
     22118     22117     22120     22121     22118     22117     22120     22122
     22118     22117     22120     22123     22119     22117     22120     22121
     22119     22117     22120     22122     22119     22117     22120     22123
     22120     22123     22126     22127     22120     22123     22126     22128
     22120     22123     22126     22129     22121     22120     22123     22124
     22121     22120     22123     22125     22121     22120     22123     22126
     22122     22120     22123     22124     22122     22120     22123     22125
     22122     22120     22123     22126     22123     22126     22129     22130
     22123     22126     22129     22131     22123     22126     22129     22132
     22124     22123     22126     22127     22124     22123     22126     22128
     22124     22123     22126     22129     22125     22123     22126     22127
     22125     22123     22126     22128     22125     22123     22126     22129
     22126     22129     22132     22133     22126     22129     22132     22134
     22126     22129     22132     22135     22127     22126     22129     22130
     22127     22126     22129     22131     22127     22126     22129     22132
     22128     22126     22129     22130     22128     22126     22129     22131
     22128     22126     22129     22132     22129     22132     22135     22136
     22129     22132     22135     22137     22129     22132     22135     22138
     22130     22129     22132     22133     22130     22129     22132     22134
     22130     22129     22132     22135     22131     22129     22132     22133
     22131     22129     22132     22134     22131     22129     22132     22135
     22132     22135     22138     22139     22132     22135     22138     22140
     22132     22135     22138     22141     22133     22132     22135     22136
     22133     22132     22135     22137     22133     22132     22135     22138
     22134     22132     22135     22136     22134     22132     22135     22137
     22134     22132     22135     22138     22135     22138     22141     22142
     22135     22138     22141     22143     22135     22138     22141     22144
     22136     22135     22138     22139     22136     22135     22138     22140
     22136     22135     22138     22141     22137     22135     22138     22139
     22137     22135     22138     22140     22137     22135     22138     22141
     22139     22138     22141     22142     22139     22138     22141     22143
     22139     22138     22141     22144     22140     22138     22141     22142
     22140     22138     22141     22143     22140     22138     22141     22144
     22145     22149     22152     22153     22145     22149     22152     22154
     22145     22149     22152     22159     22146     22145     22149     22150
     22146     22145     22149     22151     22146     22145     22149     22152
     22147     22145     22149     22150     22147     22145     22149     22151
     22147     22145     22149     22152     22148     22145     22149     22150
     22148     22145     22149     22151     22148     22145     22149     22152
     22149     22152     22159     22155     22150     22149     22152     22153
     22150     22149     22152     22154     22150     22149     22152     22159
     22151     22149     22152     22153     22151     22149     22152     22154
     22151     22149     22152     22159     22152     22159     22155     22156
     22152     22159     22155     22157     22152     22159     22155     22158
     22153     22152     22159     22155     22154     22152     22159     22155
     22155     22158     22160     22161     22155     22158     22160     22162
     22155     22158     22160     22163     22156     22155     22158     22160
     22157     22155     22158     22160     22158     22160     22163     22164
     22158     22160     22163     22165     22158     22160     22163     22171
     22159     22155     22158     22160     22160     22163     22165     22166
     22160     22163     22171     22172     22160     22163     22171     22173
     22160     22163     22171     22174     22161     22160     22163     22164
     22161     22160     22163     22165     22161     22160     22163     22171
     22162     22160     22163     22164     22162     22160     22163     22165
     22162     22160     22163     22171     22163     22165     22166     22167
     22163     22165     22166     22168     22163     22171     22174     22175
     22164     22163     22165     22166     22164     22163     22171     22172
     22164     22163     22171     22173     22164     22163     22171     22174
     22165     22163     22171     22172     22165     22163     22171     22173
     22165     22163     22171     22174     22165     22166     22168     22169
     22165     22166     22168     22170     22165     22166     22168     22180
     22166     22165     22163     22171     22166     22168     22180     22181
     22166     22168     22180     22182     22166     22168     22180     22183
     22167     22166     22168     22169     22167     22166     22168     22170
     22167     22166     22168     22180     22168     22180     22183     22184
     22168     22180     22183     22185     22168     22180     22183     22186
     22169     22168     22180     22181     22169     22168     22180     22182
     22169     22168     22180     22183     22170     22168     22180     22181
     22170     22168     22180     22182     22170     22168     22180     22183
     22171     22174     22175     22176     22171     22174     22175     22177
     22172     22171     22174     22175     22173     22171     22174     22175
     22174     22175     22177     22178     22174     22175     22177     22179
     22174     22175     22177     22227     22175     22177     22227     22228
     22175     22177     22227     22229     22175     22177     22227     22230
     22176     22175     22177     22178     22176     22175     22177     22179
     22176     22175     22177     22227     22177     22227     22230     22231
     22177     22227     22230     22232     22177     22227     22230     22233
     22178     22177     22227     22228     22178     22177     22227     22229
     22178     22177     22227     22230     22179     22177     22227     22228
     22179     22177     22227     22229     22179     22177     22227     22230
     22180     22183     22186     22187     22180     22183     22186     22188
     22180     22183     22186     22189     22181     22180     22183     22184
     22181     22180     22183     22185     22181     22180     22183     22186
     22182     22180     22183     22184     22182     22180     22183     22185
     22182     22180     22183     22186     22183     22186     22189     22190
     22183     22186     22189     22191     22183     22186     22189     22192
     22184     22183     22186     22187     22184     22183     22186     22188
     22184     22183     22186     22189     22185     22183     22186     22187
     22185     22183     22186     22188     22185     22183     22186     22189
     22186     22189     22192     22193     22186     22189     22192     22194
     22186     22189     22192     22195     22187     22186     22189     22190
     22187     22186     22189     22191     22187     22186     22189     22192
     22188     22186     22189     22190     22188     22186     22189     22191
     22188     22186     22189     22192     22189     22192     22195     22196
     22189     22192     22195     22197     22189     22192     22195     22198
     22190     22189     22192     22193     22190     22189     22192     22194
     22190     22189     22192     22195     22191     22189     22192     22193
     22191     22189     22192     22194     22191     22189     22192     22195
     22192     22195     22198     22199     22192     22195     22198     22200
     22193     22192     22195     22196     22193     22192     22195     22197
     22193     22192     22195     22198     22194     22192     22195     22196
     22194     22192     22195     22197     22194     22192     22195     22198
     22195     22198     22200     22201     22195     22198     22200     22202
     22196     22195     22198     22199     22196     22195     22198     22200
     22197     22195     22198     22199     22197     22195     22198     22200
     22198     22200     22202     22203     22198     22200     22202     22204
     22198     22200     22202     22205     22199     22198     22200     22201
     22199     22198     22200     22202     22200     22202     22205     22206
     22200     22202     22205     22207     22200     22202     22205     22208
     22201     22200     22202     22203     22201     22200     22202     22204
     22201     22200     22202     22205     22202     22205     22208     22209
     22202     22205     22208     22210     22202     22205     22208     22211
     22203     22202     22205     22206     22203     22202     22205     22207
     22203     22202     22205     22208     22204     22202     22205     22206
     22204     22202     22205     22207     22204     22202     22205     22208
     22205     22208     22211     22212     22205     22208     22211     22213
     22205     22208     22211     22214     22206     22205     22208     22209
     22206     22205     22208     22210     22206     22205     22208     22211
     22207     22205     22208     22209     22207     22205     22208     22210
     22207     22205     22208     22211     22208     22211     22214     22215
     22208     22211     22214     22216     22208     22211     22214     22217
     22209     22208     22211     22212     22209     22208     22211     22213
     22209     22208     22211     22214     22210     22208     22211     22212
     22210     22208     22211     22213     22210     22208     22211     22214
     22211     22214     22217     22218     22211     22214     22217     22219
     22211     22214     22217     22220     22212     22211     22214     22215
     22212     22211     22214     22216     22212     22211     22214     22217
     22213     22211     22214     22215     22213     22211     22214     22216
     22213     22211     22214     22217     22214     22217     22220     22221
     22214     22217     22220     22222     22214     22217     22220     22223
     22215     22214     22217     22218     22215     22214     22217     22219
     22215     22214     22217     22220     22216     22214     22217     22218
     22216     22214     22217     22219     22216     22214     22217     22220
     22217     22220     22223     22224     22217     22220     22223     22225
     22217     22220     22223     22226     22218     22217     22220     22221
     22218     22217     22220     22222     22218     22217     22220     22223
     22219     22217     22220     22221     22219     22217     22220     22222
     22219     22217     22220     22223     22221     22220     22223     22224
     22221     22220     22223     22225     22221     22220     22223     22226
     22222     22220     22223     22224     22222     22220     22223     22225
     22222     22220     22223     22226     22227     22230     22233     22234
     22227     22230     22233     22235     22227     22230     22233     22236
     22228     22227     22230     22231     22228     22227     22230     22232
     22228     22227     22230     22233     22229     22227     22230     22231
     22229     22227     22230     22232     22229     22227     22230     22233
     22230     22233     22236     22237     22230     22233     22236     22238
     22230     22233     22236     22239     22231     22230     22233     22234
     22231     22230     22233     22235     22231     22230     22233     22236
     22232     22230     22233     22234     22232     22230     22233     22235
     22232     22230     22233     22236     22233     22236     22239     22240
     22233     22236     22239     22241     22233     22236     22239     22242
     22234     22233     22236     22237     22234     22233     22236     22238
     22234     22233     22236     22239     22235     22233     22236     22237
     22235     22233     22236     22238     22235     22233     22236     22239
     22236     22239     22242     22243     22236     22239     22242     22244
     22236     22239     22242     22245     22237     22236     22239     22240
     22237     22236     22239     22241     22237     22236     22239     22242
     22238     22236     22239     22240     22238     22236     22239     22241
     22238     22236     22239     22242     22239     22242     22245     22246
     22239     22242     22245     22247     22240     22239     22242     22243
     22240     22239     22242     22244     22240     22239     22242     22245
     22241     22239     22242     22243     22241     22239     22242     22244
     22241     22239     22242     22245     22242     22245     22247     22248
     22242     22245     22247     22249     22243     22242     22245     22246
     22243     22242     22245     22247     22244     22242     22245     22246
     22244     22242     22245     22247     22245     22247     22249     22250
     22245     22247     22249     22251     22245     22247     22249     22252
     22246     22245     22247     22248     22246     22245     22247     22249
     22247     22249     22252     22253     22247     22249     22252     22254
     22247     22249     22252     22255     22248     22247     22249     22250
     22248     22247     22249     22251     22248     22247     22249     22252
     22249     22252     22255     22256     22249     22252     22255     22257
     22249     22252     22255     22258     22250     22249     22252     22253
     22250     22249     22252     22254     22250     22249     22252     22255
     22251     22249     22252     22253     22251     22249     22252     22254
     22251     22249     22252     22255     22252     22255     22258     22259
     22252     22255     22258     22260     22252     22255     22258     22261
     22253     22252     22255     22256     22253     22252     22255     22257
     22253     22252     22255     22258     22254     22252     22255     22256
     22254     22252     22255     22257     22254     22252     22255     22258
     22255     22258     22261     22262     22255     22258     22261     22263
     22255     22258     22261     22264     22256     22255     22258     22259
     22256     22255     22258     22260     22256     22255     22258     22261
     22257     22255     22258     22259     22257     22255     22258     22260
     22257     22255     22258     22261     22258     22261     22264     22265
     22258     22261     22264     22266     22258     22261     22264     22267
     22259     22258     22261     22262     22259     22258     22261     22263
     22259     22258     22261     22264     22260     22258     22261     22262
     22260     22258     22261     22263     22260     22258     22261     22264
     22261     22264     22267     22268     22261     22264     22267     22269
     22261     22264     22267     22270     22262     22261     22264     22265
     22262     22261     22264     22266     22262     22261     22264     22267
     22263     22261     22264     22265     22263     22261     22264     22266
     22263     22261     22264     22267     22264     22267     22270     22271
     22264     22267     22270     22272     22264     22267     22270     22273
     22265     22264     22267     22268     22265     22264     22267     22269
     22265     22264     22267     22270     22266     22264     22267     22268
     22266     22264     22267     22269     22266     22264     22267     22270
     22268     22267     22270     22271     22268     22267     22270     22272
     22268     22267     22270     22273     22269     22267     22270     22271
     22269     22267     22270     22272     22269     22267     22270     22273
     22274     22278     22281     22282     22274     22278     22281     22283
     22274     22278     22281     22288     22275     22274     22278     22279
     22275     22274     22278     22280     22275     22274     22278     22281
     22276     22274     22278     22279     22276     22274     22278     22280
     22276     22274     22278     22281     22277     22274     22278     22279
     22277     22274     22278     22280     22277     22274     22278     22281
     22278     22281     22288     22284     22279     22278     22281     22282
     22279     22278     22281     22283     22279     22278     22281     22288
     22280     22278     22281     22282     22280     22278     22281     22283
     22280     22278     22281     22288     22281     22288     22284     22285
     22281     22288     22284     22286     22281     22288     22284     22287
     22282     22281     22288     22284     22283     22281     22288     22284
     22284     22287     22289     22290     22284     22287     22289     22291
     22284     22287     22289     22292     22285     22284     22287     22289
     22286     22284     22287     22289     22287     22289     22292     22293
     22287     22289     22292     22294     22287     22289     22292     22300
     22288     22284     22287     22289     22289     22292     22294     22295
     22289     22292     22300     22301     22289     22292     22300     22302
     22289     22292     22300     22303     22290     22289     22292     22293
     22290     22289     22292     22294     22290     22289     22292     22300
     22291     22289     22292     22293     22291     22289     22292     22294
     22291     22289     22292     22300     22292     22294     22295     22296
     22292     22294     22295     22297     22292     22300     22303     22304
     22293     22292     22294     22295     22293     22292     22300     22301
     22293     22292     22300     22302     22293     22292     22300     22303
     22294     22292     22300     22301     22294     22292     22300     22302
     22294     22292     22300     22303     22294     22295     22297     22298
     22294     22295     22297     22299     22294     22295     22297     22309
     22295     22294     22292     22300     22295     22297     22309     22310
     22295     22297     22309     22311     22295     22297     22309     22312
     22296     22295     22297     22298     22296     22295     22297     22299
     22296     22295     22297     22309     22297     22309     22312     22313
     22297     22309     22312     22314     22297     22309     22312     22315
     22298     22297     22309     22310     22298     22297     22309     22311
     22298     22297     22309     22312     22299     22297     22309     22310
     22299     22297     22309     22311     22299     22297     22309     22312
     22300     22303     22304     22305     22300     22303     22304     22306
     22301     22300     22303     22304     22302     22300     22303     22304
     22303     22304     22306     22307     22303     22304     22306     22308
     22303     22304     22306     22356     22304     22306     22356     22357
     22304     22306     22356     22358     22304     22306     22356     22359
     22305     22304     22306     22307     22305     22304     22306     22308
     22305     22304     22306     22356     22306     22356     22359     22360
     22306     22356     22359     22361     22306     22356     22359     22362
     22307     22306     22356     22357     22307     22306     22356     22358
     22307     22306     22356     22359     22308     22306     22356     22357
     22308     22306     22356     22358     22308     22306     22356     22359
     22309     22312     22315     22316     22309     22312     22315     22317
     22309     22312     22315     22318     22310     22309     22312     22313
     22310     22309     22312     22314     22310     22309     22312     22315
     22311     22309     22312     22313     22311     22309     22312     22314
     22311     22309     22312     22315     22312     22315     22318     22319
     22312     22315     22318     22320     22312     22315     22318     22321
     22313     22312     22315     22316     22313     22312     22315     22317
     22313     22312     22315     22318     22314     22312     22315     22316
     22314     22312     22315     22317     22314     22312     22315     22318
     22315     22318     22321     22322     22315     22318     22321     22323
     22315     22318     22321     22324     22316     22315     22318     22319
     22316     22315     22318     22320     22316     22315     22318     22321
     22317     22315     22318     22319     22317     22315     22318     22320
     22317     22315     22318     22321     22318     22321     22324     22325
     22318     22321     22324     22326     22318     22321     22324     22327
     22319     22318     22321     22322     22319     22318     22321     22323
     22319     22318     22321     22324     22320     22318     22321     22322
     22320     22318     22321     22323     22320     22318     22321     22324
     22321     22324     22327     22328     22321     22324     22327     22329
     22322     22321     22324     22325     22322     22321     22324     22326
     22322     22321     22324     22327     22323     22321     22324     22325
     22323     22321     22324     22326     22323     22321     22324     22327
     22324     22327     22329     22330     22324     22327     22329     22331
     22325     22324     22327     22328     22325     22324     22327     22329
     22326     22324     22327     22328     22326     22324     22327     22329
     22327     22329     22331     22332     22327     22329     22331     22333
     22327     22329     22331     22334     22328     22327     22329     22330
     22328     22327     22329     22331     22329     22331     22334     22335
     22329     22331     22334     22336     22329     22331     22334     22337
     22330     22329     22331     22332     22330     22329     22331     22333
     22330     22329     22331     22334     22331     22334     22337     22338
     22331     22334     22337     22339     22331     22334     22337     22340
     22332     22331     22334     22335     22332     22331     22334     22336
     22332     22331     22334     22337     22333     22331     22334     22335
     22333     22331     22334     22336     22333     22331     22334     22337
     22334     22337     22340     22341     22334     22337     22340     22342
     22334     22337     22340     22343     22335     22334     22337     22338
     22335     22334     22337     22339     22335     22334     22337     22340
     22336     22334     22337     22338     22336     22334     22337     22339
     22336     22334     22337     22340     22337     22340     22343     22344
     22337     22340     22343     22345     22337     22340     22343     22346
     22338     22337     22340     22341     22338     22337     22340     22342
     22338     22337     22340     22343     22339     22337     22340     22341
     22339     22337     22340     22342     22339     22337     22340     22343
     22340     22343     22346     22347     22340     22343     22346     22348
     22340     22343     22346     22349     22341     22340     22343     22344
     22341     22340     22343     22345     22341     22340     22343     22346
     22342     22340     22343     22344     22342     22340     22343     22345
     22342     22340     22343     22346     22343     22346     22349     22350
     22343     22346     22349     22351     22343     22346     22349     22352
     22344     22343     22346     22347     22344     22343     22346     22348
     22344     22343     22346     22349     22345     22343     22346     22347
     22345     22343     22346     22348     22345     22343     22346     22349
     22346     22349     22352     22353     22346     22349     22352     22354
     22346     22349     22352     22355     22347     22346     22349     22350
     22347     22346     22349     22351     22347     22346     22349     22352
     22348     22346     22349     22350     22348     22346     22349     22351
     22348     22346     22349     22352     22350     22349     22352     22353
     22350     22349     22352     22354     22350     22349     22352     22355
     22351     22349     22352     22353     22351     22349     22352     22354
     22351     22349     22352     22355     22356     22359     22362     22363
     22356     22359     22362     22364     22356     22359     22362     22365
     22357     22356     22359     22360     22357     22356     22359     22361
     22357     22356     22359     22362     22358     22356     22359     22360
     22358     22356     22359     22361     22358     22356     22359     22362
     22359     22362     22365     22366     22359     22362     22365     22367
     22359     22362     22365     22368     22360     22359     22362     22363
     22360     22359     22362     22364     22360     22359     22362     22365
     22361     22359     22362     22363     22361     22359     22362     22364
     22361     22359     22362     22365     22362     22365     22368     22369
     22362     22365     22368     22370     22362     22365     22368     22371
     22363     22362     22365     22366     22363     22362     22365     22367
     22363     22362     22365     22368     22364     22362     22365     22366
     22364     22362     22365     22367     22364     22362     22365     22368
     22365     22368     22371     22372     22365     22368     22371     22373
     22365     22368     22371     22374     22366     22365     22368     22369
     22366     22365     22368     22370     22366     22365     22368     22371
     22367     22365     22368     22369     22367     22365     22368     22370
     22367     22365     22368     22371     22368     22371     22374     22375
     22368     22371     22374     22376     22369     22368     22371     22372
     22369     22368     22371     22373     22369     22368     22371     22374
     22370     22368     22371     22372     22370     22368     22371     22373
     22370     22368     22371     22374     22371     22374     22376     22377
     22371     22374     22376     22378     22372     22371     22374     22375
     22372     22371     22374     22376     22373     22371     22374     22375
     22373     22371     22374     22376     22374     22376     22378     22379
     22374     22376     22378     22380     22374     22376     22378     22381
     22375     22374     22376     22377     22375     22374     22376     22378
     22376     22378     22381     22382     22376     22378     22381     22383
     22376     22378     22381     22384     22377     22376     22378     22379
     22377     22376     22378     22380     22377     22376     22378     22381
     22378     22381     22384     22385     22378     22381     22384     22386
     22378     22381     22384     22387     22379     22378     22381     22382
     22379     22378     22381     22383     22379     22378     22381     22384
     22380     22378     22381     22382     22380     22378     22381     22383
     22380     22378     22381     22384     22381     22384     22387     22388
     22381     22384     22387     22389     22381     22384     22387     22390
     22382     22381     22384     22385     22382     22381     22384     22386
     22382     22381     22384     22387     22383     22381     22384     22385
     22383     22381     22384     22386     22383     22381     22384     22387
     22384     22387     22390     22391     22384     22387     22390     22392
     22384     22387     22390     22393     22385     22384     22387     22388
     22385     22384     22387     22389     22385     22384     22387     22390
     22386     22384     22387     22388     22386     22384     22387     22389
     22386     22384     22387     22390     22387     22390     22393     22394
     22387     22390     22393     22395     22387     22390     22393     22396
     22388     22387     22390     22391     22388     22387     22390     22392
     22388     22387     22390     22393     22389     22387     22390     22391
     22389     22387     22390     22392     22389     22387     22390     22393
     22390     22393     22396     22397     22390     22393     22396     22398
     22390     22393     22396     22399     22391     22390     22393     22394
     22391     22390     22393     22395     22391     22390     22393     22396
     22392     22390     22393     22394     22392     22390     22393     22395
     22392     22390     22393     22396     22393     22396     22399     22400
     22393     22396     22399     22401     22393     22396     22399     22402
     22394     22393     22396     22397     22394     22393     22396     22398
     22394     22393     22396     22399     22395     22393     22396     22397
     22395     22393     22396     22398     22395     22393     22396     22399
     22397     22396     22399     22400     22397     22396     22399     22401
     22397     22396     22399     22402     22398     22396     22399     22400
     22398     22396     22399     22401     22398     22396     22399     22402
     22403     22404     22419     22420     22403     22404     22419     22421
     22403     22404     22419     22425     22404     22403     22407     22408
     22404     22403     22407     22409     22404     22403     22407     22410
     22404     22403     22411     22412     22404     22403     22411     22413
     22404     22403     22411     22414     22404     22403     22415     22416
     22404     22403     22415     22417     22404     22403     22415     22418
     22404     22419     22425     22422     22405     22404     22403     22407
     22405     22404     22403     22411     22405     22404     22403     22415
     22405     22404     22419     22420     22405     22404     22419     22421
     22405     22404     22419     22425     22406     22404     22403     22407
     22406     22404     22403     22411     22406     22404     22403     22415
     22406     22404     22419     22420     22406     22404     22419     22421
     22406     22404     22419     22425     22407     22403     22404     22419
     22407     22403     22411     22412     22407     22403     22411     22413
     22407     22403     22411     22414     22407     22403     22415     22416
     22407     22403     22415     22417     22407     22403     22415     22418
     22408     22407     22403     22411     22408     22407     22403     22415
     22409     22407     22403     22411     22409     22407     22403     22415
     22410     22407     22403     22411     22410     22407     22403     22415
     22411     22403     22404     22419     22411     22403     22415     22416
     22411     22403     22415     22417     22411     22403     22415     22418
     22412     22411     22403     22415     22413     22411     22403     22415
     22414     22411     22403     22415     22415     22403     22404     22419
     22419     22425     22422     22423     22419     22425     22422     22424
     22419     22425     22422     22426     22420     22419     22425     22422
     22421     22419     22425     22422     22422     22426     22427     22428
     22422     22426     22427     22429     22422     22426     22427     22430
     22423     22422     22426     22427     22424     22422     22426     22427
     22425     22422     22426     22427     22426     22427     22430     22431
     22426     22427     22430     22432     22426     22427     22430     22438
     22427     22430     22432     22433     22427     22430     22438     22439
     22427     22430     22438     22440     22427     22430     22438     22441
     22428     22427     22430     22431     22428     22427     22430     22432
     22428     22427     22430     22438     22429     22427     22430     22431
     22429     22427     22430     22432     22429     22427     22430     22438
     22430     22432     22433     22434     22430     22432     22433     22435
     22430     22438     22441     22442     22431     22430     22432     22433
     22431     22430     22438     22439     22431     22430     22438     22440
     22431     22430     22438     22441     22432     22430     22438     22439
     22432     22430     22438     22440     22432     22430     22438     22441
     22432     22433     22435     22436     22432     22433     22435     22437
     22432     22433     22435     22447     22433     22432     22430     22438
     22433     22435     22447     22448     22433     22435     22447     22449
     22433     22435     22447     22450     22434     22433     22435     22436
     22434     22433     22435     22437     22434     22433     22435     22447
     22435     22447     22450     22451     22435     22447     22450     22452
     22435     22447     22450     22453     22436     22435     22447     22448
     22436     22435     22447     22449     22436     22435     22447     22450
     22437     22435     22447     22448     22437     22435     22447     22449
     22437     22435     22447     22450     22438     22441     22442     22443
     22438     22441     22442     22444     22439     22438     22441     22442
     22440     22438     22441     22442     22441     22442     22444     22445
     22441     22442     22444     22446     22441     22442     22444     22494
     22442     22444     22494     22495     22442     22444     22494     22496
     22442     22444     22494     22497     22443     22442     22444     22445
     22443     22442     22444     22446     22443     22442     22444     22494
     22444     22494     22497     22498     22444     22494     22497     22499
     22444     22494     22497     22500     22445     22444     22494     22495
     22445     22444     22494     22496     22445     22444     22494     22497
     22446     22444     22494     22495     22446     22444     22494     22496
     22446     22444     22494     22497     22447     22450     22453     22454
     22447     22450     22453     22455     22447     22450     22453     22456
     22448     22447     22450     22451     22448     22447     22450     22452
     22448     22447     22450     22453     22449     22447     22450     22451
     22449     22447     22450     22452     22449     22447     22450     22453
     22450     22453     22456     22457     22450     22453     22456     22458
     22450     22453     22456     22459     22451     22450     22453     22454
     22451     22450     22453     22455     22451     22450     22453     22456
     22452     22450     22453     22454     22452     22450     22453     22455
     22452     22450     22453     22456     22453     22456     22459     22460
     22453     22456     22459     22461     22453     22456     22459     22462
     22454     22453     22456     22457     22454     22453     22456     22458
     22454     22453     22456     22459     22455     22453     22456     22457
     22455     22453     22456     22458     22455     22453     22456     22459
     22456     22459     22462     22463     22456     22459     22462     22464
     22456     22459     22462     22465     22457     22456     22459     22460
     22457     22456     22459     22461     22457     22456     22459     22462
     22458     22456     22459     22460     22458     22456     22459     22461
     22458     22456     22459     22462     22459     22462     22465     22466
     22459     22462     22465     22467     22460     22459     22462     22463
     22460     22459     22462     22464     22460     22459     22462     22465
     22461     22459     22462     22463     22461     22459     22462     22464
     22461     22459     22462     22465     22462     22465     22467     22468
     22462     22465     22467     22469     22463     22462     22465     22466
     22463     22462     22465     22467     22464     22462     22465     22466
     22464     22462     22465     22467     22465     22467     22469     22470
     22465     22467     22469     22471     22465     22467     22469     22472
     22466     22465     22467     22468     22466     22465     22467     22469
     22467     22469     22472     22473     22467     22469     22472     22474
     22467     22469     22472     22475     22468     22467     22469     22470
     22468     22467     22469     22471     22468     22467     22469     22472
     22469     22472     22475     22476     22469     22472     22475     22477
     22469     22472     22475     22478     22470     22469     22472     22473
     22470     22469     22472     22474     22470     22469     22472     22475
     22471     22469     22472     22473     22471     22469     22472     22474
     22471     22469     22472     22475     22472     22475     22478     22479
     22472     22475     22478     22480     22472     22475     22478     22481
     22473     22472     22475     22476     22473     22472     22475     22477
     22473     22472     22475     22478     22474     22472     22475     22476
     22474     22472     22475     22477     22474     22472     22475     22478
     22475     22478     22481     22482     22475     22478     22481     22483
     22475     22478     22481     22484     22476     22475     22478     22479
     22476     22475     22478     22480     22476     22475     22478     22481
     22477     22475     22478     22479     22477     22475     22478     22480
     22477     22475     22478     22481     22478     22481     22484     22485
     22478     22481     22484     22486     22478     22481     22484     22487
     22479     22478     22481     22482     22479     22478     22481     22483
     22479     22478     22481     22484     22480     22478     22481     22482
     22480     22478     22481     22483     22480     22478     22481     22484
     22481     22484     22487     22488     22481     22484     22487     22489
     22481     22484     22487     22490     22482     22481     22484     22485
     22482     22481     22484     22486     22482     22481     22484     22487
     22483     22481     22484     22485     22483     22481     22484     22486
     22483     22481     22484     22487     22484     22487     22490     22491
     22484     22487     22490     22492     22484     22487     22490     22493
     22485     22484     22487     22488     22485     22484     22487     22489
     22485     22484     22487     22490     22486     22484     22487     22488
     22486     22484     22487     22489     22486     22484     22487     22490
     22488     22487     22490     22491     22488     22487     22490     22492
     22488     22487     22490     22493     22489     22487     22490     22491
     22489     22487     22490     22492     22489     22487     22490     22493
     22494     22497     22500     22501     22494     22497     22500     22502
     22494     22497     22500     22503     22495     22494     22497     22498
     22495     22494     22497     22499     22495     22494     22497     22500
     22496     22494     22497     22498     22496     22494     22497     22499
     22496     22494     22497     22500     22497     22500     22503     22504
     22497     22500     22503     22505     22497     22500     22503     22506
     22498     22497     22500     22501     22498     22497     22500     22502
     22498     22497     22500     22503     22499     22497     22500     22501
     22499     22497     22500     22502     22499     22497     22500     22503
     22500     22503     22506     22507     22500     22503     22506     22508
     22500     22503     22506     22509     22501     22500     22503     22504
     22501     22500     22503     22505     22501     22500     22503     22506
     22502     22500     22503     22504     22502     22500     22503     22505
     22502     22500     22503     22506     22503     22506     22509     22510
     22503     22506     22509     22511     22503     22506     22509     22512
     22504     22503     22506     22507     22504     22503     22506     22508
     22504     22503     22506     22509     22505     22503     22506     22507
     22505     22503     22506     22508     22505     22503     22506     22509
     22506     22509     22512     22513     22506     22509     22512     22514
     22507     22506     22509     22510     22507     22506     22509     22511
     22507     22506     22509     22512     22508     22506     22509     22510
     22508     22506     22509     22511     22508     22506     22509     22512
     22509     22512     22514     22515     22509     22512     22514     22516
     22510     22509     22512     22513     22510     22509     22512     22514
     22511     22509     22512     22513     22511     22509     22512     22514
     22512     22514     22516     22517     22512     22514     22516     22518
     22512     22514     22516     22519     22513     22512     22514     22515
     22513     22512     22514     22516     22514     22516     22519     22520
     22514     22516     22519     22521     22514     22516     22519     22522
     22515     22514     22516     22517     22515     22514     22516     22518
     22515     22514     22516     22519     22516     22519     22522     22523
     22516     22519     22522     22524     22516     22519     22522     22525
     22517     22516     22519     22520     22517     22516     22519     22521
     22517     22516     22519     22522     22518     22516     22519     22520
     22518     22516     22519     22521     22518     22516     22519     22522
     22519     22522     22525     22526     22519     22522     22525     22527
     22519     22522     22525     22528     22520     22519     22522     22523
     22520     22519     22522     22524     22520     22519     22522     22525
     22521     22519     22522     22523     22521     22519     22522     22524
     22521     22519     22522     22525     22522     22525     22528     22529
     22522     22525     22528     22530     22522     22525     22528     22531
     22523     22522     22525     22526     22523     22522     22525     22527
     22523     22522     22525     22528     22524     22522     22525     22526
     22524     22522     22525     22527     22524     22522     22525     22528
     22525     22528     22531     22532     22525     22528     22531     22533
     22525     22528     22531     22534     22526     22525     22528     22529
     22526     22525     22528     22530     22526     22525     22528     22531
     22527     22525     22528     22529     22527     22525     22528     22530
     22527     22525     22528     22531     22528     22531     22534     22535
     22528     22531     22534     22536     22528     22531     22534     22537
     22529     22528     22531     22532     22529     22528     22531     22533
     22529     22528     22531     22534     22530     22528     22531     22532
     22530     22528     22531     22533     22530     22528     22531     22534
     22531     22534     22537     22538     22531     22534     22537     22539
     22531     22534     22537     22540     22532     22531     22534     22535
     22532     22531     22534     22536     22532     22531     22534     22537
     22533     22531     22534     22535     22533     22531     22534     22536
     22533     22531     22534     22537     22535     22534     22537     22538
     22535     22534     22537     22539     22535     22534     22537     22540
     22536     22534     22537     22538     22536     22534     22537     22539
     22536     22534     22537     22540     22541     22542     22557     22558
     22541     22542     22557     22559     22541     22542     22557     22563
     22542     22541     22545     22546     22542     22541     22545     22547
     22542     22541     22545     22548     22542     22541     22549     22550
     22542     22541     22549     22551     22542     22541     22549     22552
     22542     22541     22553     22554     22542     22541     22553     22555
     22542     22541     22553     22556     22542     22557     22563     22560
     22543     22542     22541     22545     22543     22542     22541     22549
     22543     22542     22541     22553     22543     22542     22557     22558
     22543     22542     22557     22559     22543     22542     22557     22563
     22544     22542     22541     22545     22544     22542     22541     22549
     22544     22542     22541     22553     22544     22542     22557     22558
     22544     22542     22557     22559     22544     22542     22557     22563
     22545     22541     22542     22557     22545     22541     22549     22550
     22545     22541     22549     22551     22545     22541     22549     22552
     22545     22541     22553     22554     22545     22541     22553     22555
     22545     22541     22553     22556     22546     22545     22541     22549
     22546     22545     22541     22553     22547     22545     22541     22549
     22547     22545     22541     22553     22548     22545     22541     22549
     22548     22545     22541     22553     22549     22541     22542     22557
     22549     22541     22553     22554     22549     22541     22553     22555
     22549     22541     22553     22556     22550     22549     22541     22553
     22551     22549     22541     22553     22552     22549     22541     22553
     22553     22541     22542     22557     22557     22563     22560     22561
     22557     22563     22560     22562     22557     22563     22560     22564
     22558     22557     22563     22560     22559     22557     22563     22560
     22560     22564     22565     22566     22560     22564     22565     22567
     22560     22564     22565     22568     22561     22560     22564     22565
     22562     22560     22564     22565     22563     22560     22564     22565
     22564     22565     22568     22569     22564     22565     22568     22570
     22564     22565     22568     22576     22565     22568     22570     22571
     22565     22568     22576     22577     22565     22568     22576     22578
     22565     22568     22576     22579     22566     22565     22568     22569
     22566     22565     22568     22570     22566     22565     22568     22576
     22567     22565     22568     22569     22567     22565     22568     22570
     22567     22565     22568     22576     22568     22570     22571     22572
     22568     22570     22571     22573     22568     22576     22579     22580
     22569     22568     22570     22571     22569     22568     22576     22577
     22569     22568     22576     22578     22569     22568     22576     22579
     22570     22568     22576     22577     22570     22568     22576     22578
     22570     22568     22576     22579     22570     22571     22573     22574
     22570     22571     22573     22575     22570     22571     22573     22585
     22571     22570     22568     22576     22571     22573     22585     22586
     22571     22573     22585     22587     22571     22573     22585     22588
     22572     22571     22573     22574     22572     22571     22573     22575
     22572     22571     22573     22585     22573     22585     22588     22589
     22573     22585     22588     22590     22573     22585     22588     22591
     22574     22573     22585     22586     22574     22573     22585     22587
     22574     22573     22585     22588     22575     22573     22585     22586
     22575     22573     22585     22587     22575     22573     22585     22588
     22576     22579     22580     22581     22576     22579     22580     22582
     22577     22576     22579     22580     22578     22576     22579     22580
     22579     22580     22582     22583     22579     22580     22582     22584
     22579     22580     22582     22632     22580     22582     22632     22633
     22580     22582     22632     22634     22580     22582     22632     22635
     22581     22580     22582     22583     22581     22580     22582     22584
     22581     22580     22582     22632     22582     22632     22635     22636
     22582     22632     22635     22637     22582     22632     22635     22638
     22583     22582     22632     22633     22583     22582     22632     22634
     22583     22582     22632     22635     22584     22582     22632     22633
     22584     22582     22632     22634     22584     22582     22632     22635
     22585     22588     22591     22592     22585     22588     22591     22593
     22585     22588     22591     22594     22586     22585     22588     22589
     22586     22585     22588     22590     22586     22585     22588     22591
     22587     22585     22588     22589     22587     22585     22588     22590
     22587     22585     22588     22591     22588     22591     22594     22595
     22588     22591     22594     22596     22588     22591     22594     22597
     22589     22588     22591     22592     22589     22588     22591     22593
     22589     22588     22591     22594     22590     22588     22591     22592
     22590     22588     22591     22593     22590     22588     22591     22594
     22591     22594     22597     22598     22591     22594     22597     22599
     22591     22594     22597     22600     22592     22591     22594     22595
     22592     22591     22594     22596     22592     22591     22594     22597
     22593     22591     22594     22595     22593     22591     22594     22596
     22593     22591     22594     22597     22594     22597     22600     22601
     22594     22597     22600     22602     22594     22597     22600     22603
     22595     22594     22597     22598     22595     22594     22597     22599
     22595     22594     22597     22600     22596     22594     22597     22598
     22596     22594     22597     22599     22596     22594     22597     22600
     22597     22600     22603     22604     22597     22600     22603     22605
     22598     22597     22600     22601     22598     22597     22600     22602
     22598     22597     22600     22603     22599     22597     22600     22601
     22599     22597     22600     22602     22599     22597     22600     22603
     22600     22603     22605     22606     22600     22603     22605     22607
     22601     22600     22603     22604     22601     22600     22603     22605
     22602     22600     22603     22604     22602     22600     22603     22605
     22603     22605     22607     22608     22603     22605     22607     22609
     22603     22605     22607     22610     22604     22603     22605     22606
     22604     22603     22605     22607     22605     22607     22610     22611
     22605     22607     22610     22612     22605     22607     22610     22613
     22606     22605     22607     22608     22606     22605     22607     22609
     22606     22605     22607     22610     22607     22610     22613     22614
     22607     22610     22613     22615     22607     22610     22613     22616
     22608     22607     22610     22611     22608     22607     22610     22612
     22608     22607     22610     22613     22609     22607     22610     22611
     22609     22607     22610     22612     22609     22607     22610     22613
     22610     22613     22616     22617     22610     22613     22616     22618
     22610     22613     22616     22619     22611     22610     22613     22614
     22611     22610     22613     22615     22611     22610     22613     22616
     22612     22610     22613     22614     22612     22610     22613     22615
     22612     22610     22613     22616     22613     22616     22619     22620
     22613     22616     22619     22621     22613     22616     22619     22622
     22614     22613     22616     22617     22614     22613     22616     22618
     22614     22613     22616     22619     22615     22613     22616     22617
     22615     22613     22616     22618     22615     22613     22616     22619
     22616     22619     22622     22623     22616     22619     22622     22624
     22616     22619     22622     22625     22617     22616     22619     22620
     22617     22616     22619     22621     22617     22616     22619     22622
     22618     22616     22619     22620     22618     22616     22619     22621
     22618     22616     22619     22622     22619     22622     22625     22626
     22619     22622     22625     22627     22619     22622     22625     22628
     22620     22619     22622     22623     22620     22619     22622     22624
     22620     22619     22622     22625     22621     22619     22622     22623
     22621     22619     22622     22624     22621     22619     22622     22625
     22622     22625     22628     22629     22622     22625     22628     22630
     22622     22625     22628     22631     22623     22622     22625     22626
     22623     22622     22625     22627     22623     22622     22625     22628
     22624     22622     22625     22626     22624     22622     22625     22627
     22624     22622     22625     22628     22626     22625     22628     22629
     22626     22625     22628     22630     22626     22625     22628     22631
     22627     22625     22628     22629     22627     22625     22628     22630
     22627     22625     22628     22631     22632     22635     22638     22639
     22632     22635     22638     22640     22632     22635     22638     22641
     22633     22632     22635     22636     22633     22632     22635     22637
     22633     22632     22635     22638     22634     22632     22635     22636
     22634     22632     22635     22637     22634     22632     22635     22638
     22635     22638     22641     22642     22635     22638     22641     22643
     22635     22638     22641     22644     22636     22635     22638     22639
     22636     22635     22638     22640     22636     22635     22638     22641
     22637     22635     22638     22639     22637     22635     22638     22640
     22637     22635     22638     22641     22638     22641     22644     22645
     22638     22641     22644     22646     22638     22641     22644     22647
     22639     22638     22641     22642     22639     22638     22641     22643
     22639     22638     22641     22644     22640     22638     22641     22642
     22640     22638     22641     22643     22640     22638     22641     22644
     22641     22644     22647     22648     22641     22644     22647     22649
     22641     22644     22647     22650     22642     22641     22644     22645
     22642     22641     22644     22646     22642     22641     22644     22647
     22643     22641     22644     22645     22643     22641     22644     22646
     22643     22641     22644     22647     22644     22647     22650     22651
     22644     22647     22650     22652     22645     22644     22647     22648
     22645     22644     22647     22649     22645     22644     22647     22650
     22646     22644     22647     22648     22646     22644     22647     22649
     22646     22644     22647     22650     22647     22650     22652     22653
     22647     22650     22652     22654     22648     22647     22650     22651
     22648     22647     22650     22652     22649     22647     22650     22651
     22649     22647     22650     22652     22650     22652     22654     22655
     22650     22652     22654     22656     22650     22652     22654     22657
     22651     22650     22652     22653     22651     22650     22652     22654
     22652     22654     22657     22658     22652     22654     22657     22659
     22652     22654     22657     22660     22653     22652     22654     22655
     22653     22652     22654     22656     22653     22652     22654     22657
     22654     22657     22660     22661     22654     22657     22660     22662
     22654     22657     22660     22663     22655     22654     22657     22658
     22655     22654     22657     22659     22655     22654     22657     22660
     22656     22654     22657     22658     22656     22654     22657     22659
     22656     22654     22657     22660     22657     22660     22663     22664
     22657     22660     22663     22665     22657     22660     22663     22666
     22658     22657     22660     22661     22658     22657     22660     22662
     22658     22657     22660     22663     22659     22657     22660     22661
     22659     22657     22660     22662     22659     22657     22660     22663
     22660     22663     22666     22667     22660     22663     22666     22668
     22660     22663     22666     22669     22661     22660     22663     22664
     22661     22660     22663     22665     22661     22660     22663     22666
     22662     22660     22663     22664     22662     22660     22663     22665
     22662     22660     22663     22666     22663     22666     22669     22670
     22663     22666     22669     22671     22663     22666     22669     22672
     22664     22663     22666     22667     22664     22663     22666     22668
     22664     22663     22666     22669     22665     22663     22666     22667
     22665     22663     22666     22668     22665     22663     22666     22669
     22666     22669     22672     22673     22666     22669     22672     22674
     22666     22669     22672     22675     22667     22666     22669     22670
     22667     22666     22669     22671     22667     22666     22669     22672
     22668     22666     22669     22670     22668     22666     22669     22671
     22668     22666     22669     22672     22669     22672     22675     22676
     22669     22672     22675     22677     22669     22672     22675     22678
     22670     22669     22672     22673     22670     22669     22672     22674
     22670     22669     22672     22675     22671     22669     22672     22673
     22671     22669     22672     22674     22671     22669     22672     22675
     22673     22672     22675     22676     22673     22672     22675     22677
     22673     22672     22675     22678     22674     22672     22675     22676
     22674     22672     22675     22677     22674     22672     22675     22678
     22679     22683     22686     22687     22679     22683     22686     22717
     22679     22725     22722     22717     22679     22725     22722     22723
     22679     22725     22722     22724     22680     22679     22681     22682
     22680     22679     22683     22684     22680     22679     22683     22685
     22680     22679     22683     22686     22680     22679     22725     22722
     22680     22679     22725     22726     22680     22679     22725     22727
     22681     22679     22683     22684     22681     22679     22683     22685
     22681     22679     22683     22686     22681     22679     22725     22722
     22681     22679     22725     22726     22681     22679     22725     22727
     22682     22681     22679     22683     22682     22681     22679     22725
     22683     22679     22725     22722     22683     22679     22725     22726
     22683     22679     22725     22727     22683     22686     22687     22688
     22683     22686     22687     22689     22683     22686     22717     22715
     22683     22686     22717     22718     22683     22686     22717     22722
     22684     22683     22679     22725     22684     22683     22686     22687
     22684     22683     22686     22717     22685     22683     22679     22725
     22685     22683     22686     22687     22685     22683     22686     22717
     22686     22683     22679     22725     22686     22687     22689     22690
     22686     22687     22689     22691     22686     22687     22689     22692
     22686     22717     22715     22692     22686     22717     22715     22712
     22686     22717     22715     22716     22686     22717     22718     22719
     22686     22717     22718     22720     22686     22717     22718     22721
     22686     22717     22722     22723     22686     22717     22722     22724
     22686     22717     22722     22725     22687     22686     22717     22715
     22687     22686     22717     22718     22687     22686     22717     22722
     22687     22689     22692     22693     22687     22689     22692     22694
     22687     22689     22692     22715     22688     22687     22686     22717
     22688     22687     22689     22690     22688     22687     22689     22691
     22688     22687     22689     22692     22689     22687     22686     22717
     22689     22692     22694     22695     22689     22692     22694     22696
     22689     22692     22694     22704     22689     22692     22715     22712
     22689     22692     22715     22716     22689     22692     22715     22717
     22690     22689     22692     22693     22690     22689     22692     22694
     22690     22689     22692     22715     22691     22689     22692     22693
     22691     22689     22692     22694     22691     22689     22692     22715
     22692     22694     22696     22697     22692     22694     22696     22698
     22692     22694     22696     22699     22692     22694     22704     22702
     22692     22694     22704     22705     22692     22694     22704     22709
     22692     22715     22712     22709     22692     22715     22712     22713
     22692     22715     22712     22714     22692     22715     22717     22718
     22692     22715     22717     22722     22693     22692     22694     22695
     22693     22692     22694     22696     22693     22692     22694     22704
     22693     22692     22715     22712     22693     22692     22715     22716
     22693     22692     22715     22717     22694     22692     22715     22712
     22694     22692     22715     22716     22694     22692     22715     22717
     22694     22696     22699     22700     22694     22696     22699     22701
     22694     22696     22699     22702     22694     22704     22702     22699
     22694     22704     22702     22703     22694     22704     22702     22728
     22694     22704     22705     22706     22694     22704     22705     22707
     22694     22704     22705     22708     22694     22704     22709     22710
     22694     22704     22709     22711     22694     22704     22709     22712
     22695     22694     22692     22715     22695     22694     22696     22697
     22695     22694     22696     22698     22695     22694     22696     22699
     22695     22694     22704     22702     22695     22694     22704     22705
     22695     22694     22704     22709     22696     22694     22692     22715
     22696     22694     22704     22702     22696     22694     22704     22705
     22696     22694     22704     22709     22696     22699     22702     22703
     22696     22699     22702     22704     22696     22699     22702     22728
     22697     22696     22694     22704     22697     22696     22699     22700
     22697     22696     22699     22701     22697     22696     22699     22702
     22698     22696     22694     22704     22698     22696     22699     22700
     22698     22696     22699     22701     22698     22696     22699     22702
     22699     22696     22694     22704     22699     22702     22704     22705
     22699     22702     22704     22709     22699     22702     22728     22729
     22699     22702     22728     22730     22699     22702     22728     22734
     22700     22699     22702     22703     22700     22699     22702     22704
     22700     22699     22702     22728     22701     22699     22702     22703
     22701     22699     22702     22704     22701     22699     22702     22728
     22702     22704     22705     22706     22702     22704     22705     22707
     22702     22704     22705     22708     22702     22704     22709     22710
     22702     22704     22709     22711     22702     22704     22709     22712
     22702     22728     22730     22731     22702     22728     22730     22732
     22702     22728     22730     22733     22702     22728     22734     22735
     22702     22728     22734     22736     22702     22728     22734     22737
     22703     22702     22704     22705     22703     22702     22704     22709
     22703     22702     22728     22729     22703     22702     22728     22730
     22703     22702     22728     22734     22704     22694     22692     22715
     22704     22702     22728     22729     22704     22702     22728     22730
     22704     22702     22728     22734     22704     22709     22712     22713
     22704     22709     22712     22714     22704     22709     22712     22715
     22705     22704     22702     22728     22705     22704     22709     22710
     22705     22704     22709     22711     22705     22704     22709     22712
     22706     22705     22704     22709     22707     22705     22704     22709
     22708     22705     22704     22709     22709     22704     22702     22728
     22709     22712     22715     22716     22709     22712     22715     22717
     22710     22709     22712     22713     22710     22709     22712     22714
     22710     22709     22712     22715     22711     22709     22712     22713
     22711     22709     22712     22714     22711     22709     22712     22715
     22712     22715     22717     22718     22712     22715     22717     22722
     22713     22712     22715     22716     22713     22712     22715     22717
     22714     22712     22715     22716     22714     22712     22715     22717
     22715     22717     22718     22719     22715     22717     22718     22720
     22715     22717     22718     22721     22715     22717     22722     22723
     22715     22717     22722     22724     22715     22717     22722     22725
     22716     22715     22717     22718     22716     22715     22717     22722
     22717     22722     22725     22726     22717     22722     22725     22727
     22718     22717     22722     22723     22718     22717     22722     22724
     22718     22717     22722     22725     22719     22718     22717     22722
     22720     22718     22717     22722     22721     22718     22717     22722
     22723     22722     22725     22726     22723     22722     22725     22727
     22724     22722     22725     22726     22724     22722     22725     22727
     22728     22734     22737     22738     22728     22734     22737     22739
     22728     22734     22737     22740     22729     22728     22730     22731
     22729     22728     22730     22732     22729     22728     22730     22733
     22729     22728     22734     22735     22729     22728     22734     22736
     22729     22728     22734     22737     22730     22728     22734     22735
     22730     22728     22734     22736     22730     22728     22734     22737
     22731     22730     22728     22734     22732     22730     22728     22734
     22733     22730     22728     22734     22734     22737     22740     22741
     22734     22737     22740     22742     22734     22737     22740     22743
     22735     22734     22737     22738     22735     22734     22737     22739
     22735     22734     22737     22740     22736     22734     22737     22738
     22736     22734     22737     22739     22736     22734     22737     22740
     22737     22740     22743     22744     22737     22740     22743     22745
     22737     22740     22743     22749     22738     22737     22740     22741
     22738     22737     22740     22742     22738     22737     22740     22743
     22739     22737     22740     22741     22739     22737     22740     22742
     22739     22737     22740     22743     22740     22743     22745     22746
     22740     22743     22745     22747     22740     22743     22745     22748
     22740     22743     22749     22750     22740     22743     22749     22751
     22740     22743     22749     22752     22741     22740     22743     22744
     22741     22740     22743     22745     22741     22740     22743     22749
     22742     22740     22743     22744     22742     22740     22743     22745
     22742     22740     22743     22749     22744     22743     22745     22746
     22744     22743     22745     22747     22744     22743     22745     22748
     22744     22743     22749     22750     22744     22743     22749     22751
     22744     22743     22749     22752     22745     22743     22749     22750
     22745     22743     22749     22751     22745     22743     22749     22752
     22746     22745     22743     22749     22747     22745     22743     22749
     22748     22745     22743     22749     22753     22754     22769     22770
     22753     22754     22769     22771     22753     22754     22769     22775
     22754     22753     22757     22758     22754     22753     22757     22759
     22754     22753     22757     22760     22754     22753     22761     22762
     22754     22753     22761     22763     22754     22753     22761     22764
     22754     22753     22765     22766     22754     22753     22765     22767
     22754     22753     22765     22768     22754     22769     22775     22772
     22755     22754     22753     22757     22755     22754     22753     22761
     22755     22754     22753     22765     22755     22754     22769     22770
     22755     22754     22769     22771     22755     22754     22769     22775
     22756     22754     22753     22757     22756     22754     22753     22761
     22756     22754     22753     22765     22756     22754     22769     22770
     22756     22754     22769     22771     22756     22754     22769     22775
     22757     22753     22754     22769     22757     22753     22761     22762
     22757     22753     22761     22763     22757     22753     22761     22764
     22757     22753     22765     22766     22757     22753     22765     22767
     22757     22753     22765     22768     22758     22757     22753     22761
     22758     22757     22753     22765     22759     22757     22753     22761
     22759     22757     22753     22765     22760     22757     22753     22761
     22760     22757     22753     22765     22761     22753     22754     22769
     22761     22753     22765     22766     22761     22753     22765     22767
     22761     22753     22765     22768     22762     22761     22753     22765
     22763     22761     22753     22765     22764     22761     22753     22765
     22765     22753     22754     22769     22769     22775     22772     22773
     22769     22775     22772     22774     22769     22775     22772     22776
     22770     22769     22775     22772     22771     22769     22775     22772
     22772     22776     22777     22778     22772     22776     22777     22779
     22772     22776     22777     22780     22773     22772     22776     22777
     22774     22772     22776     22777     22775     22772     22776     22777
     22776     22777     22780     22781     22776     22777     22780     22782
     22776     22777     22780     22788     22777     22780     22782     22783
     22777     22780     22788     22789     22777     22780     22788     22790
     22777     22780     22788     22791     22778     22777     22780     22781
     22778     22777     22780     22782     22778     22777     22780     22788
     22779     22777     22780     22781     22779     22777     22780     22782
     22779     22777     22780     22788     22780     22782     22783     22784
     22780     22782     22783     22785     22780     22788     22791     22792
     22781     22780     22782     22783     22781     22780     22788     22789
     22781     22780     22788     22790     22781     22780     22788     22791
     22782     22780     22788     22789     22782     22780     22788     22790
     22782     22780     22788     22791     22782     22783     22785     22786
     22782     22783     22785     22787     22782     22783     22785     22797
     22783     22782     22780     22788     22783     22785     22797     22798
     22783     22785     22797     22799     22783     22785     22797     22800
     22784     22783     22785     22786     22784     22783     22785     22787
     22784     22783     22785     22797     22785     22797     22800     22801
     22785     22797     22800     22802     22785     22797     22800     22803
     22786     22785     22797     22798     22786     22785     22797     22799
     22786     22785     22797     22800     22787     22785     22797     22798
     22787     22785     22797     22799     22787     22785     22797     22800
     22788     22791     22792     22793     22788     22791     22792     22794
     22789     22788     22791     22792     22790     22788     22791     22792
     22791     22792     22794     22795     22791     22792     22794     22796
     22791     22792     22794     22844     22792     22794     22844     22845
     22792     22794     22844     22846     22792     22794     22844     22847
     22793     22792     22794     22795     22793     22792     22794     22796
     22793     22792     22794     22844     22794     22844     22847     22848
     22794     22844     22847     22849     22794     22844     22847     22850
     22795     22794     22844     22845     22795     22794     22844     22846
     22795     22794     22844     22847     22796     22794     22844     22845
     22796     22794     22844     22846     22796     22794     22844     22847
     22797     22800     22803     22804     22797     22800     22803     22805
     22797     22800     22803     22806     22798     22797     22800     22801
     22798     22797     22800     22802     22798     22797     22800     22803
     22799     22797     22800     22801     22799     22797     22800     22802
     22799     22797     22800     22803     22800     22803     22806     22807
     22800     22803     22806     22808     22800     22803     22806     22809
     22801     22800     22803     22804     22801     22800     22803     22805
     22801     22800     22803     22806     22802     22800     22803     22804
     22802     22800     22803     22805     22802     22800     22803     22806
     22803     22806     22809     22810     22803     22806     22809     22811
     22803     22806     22809     22812     22804     22803     22806     22807
     22804     22803     22806     22808     22804     22803     22806     22809
     22805     22803     22806     22807     22805     22803     22806     22808
     22805     22803     22806     22809     22806     22809     22812     22813
     22806     22809     22812     22814     22806     22809     22812     22815
     22807     22806     22809     22810     22807     22806     22809     22811
     22807     22806     22809     22812     22808     22806     22809     22810
     22808     22806     22809     22811     22808     22806     22809     22812
     22809     22812     22815     22816     22809     22812     22815     22817
     22810     22809     22812     22813     22810     22809     22812     22814
     22810     22809     22812     22815     22811     22809     22812     22813
     22811     22809     22812     22814     22811     22809     22812     22815
     22812     22815     22817     22818     22812     22815     22817     22819
     22813     22812     22815     22816     22813     22812     22815     22817
     22814     22812     22815     22816     22814     22812     22815     22817
     22815     22817     22819     22820     22815     22817     22819     22821
     22815     22817     22819     22822     22816     22815     22817     22818
     22816     22815     22817     22819     22817     22819     22822     22823
     22817     22819     22822     22824     22817     22819     22822     22825
     22818     22817     22819     22820     22818     22817     22819     22821
     22818     22817     22819     22822     22819     22822     22825     22826
     22819     22822     22825     22827     22819     22822     22825     22828
     22820     22819     22822     22823     22820     22819     22822     22824
     22820     22819     22822     22825     22821     22819     22822     22823
     22821     22819     22822     22824     22821     22819     22822     22825
     22822     22825     22828     22829     22822     22825     22828     22830
     22822     22825     22828     22831     22823     22822     22825     22826
     22823     22822     22825     22827     22823     22822     22825     22828
     22824     22822     22825     22826     22824     22822     22825     22827
     22824     22822     22825     22828     22825     22828     22831     22832
     22825     22828     22831     22833     22825     22828     22831     22834
     22826     22825     22828     22829     22826     22825     22828     22830
     22826     22825     22828     22831     22827     22825     22828     22829
     22827     22825     22828     22830     22827     22825     22828     22831
     22828     22831     22834     22835     22828     22831     22834     22836
     22828     22831     22834     22837     22829     22828     22831     22832
     22829     22828     22831     22833     22829     22828     22831     22834
     22830     22828     22831     22832     22830     22828     22831     22833
     22830     22828     22831     22834     22831     22834     22837     22838
     22831     22834     22837     22839     22831     22834     22837     22840
     22832     22831     22834     22835     22832     22831     22834     22836
     22832     22831     22834     22837     22833     22831     22834     22835
     22833     22831     22834     22836     22833     22831     22834     22837
     22834     22837     22840     22841     22834     22837     22840     22842
     22834     22837     22840     22843     22835     22834     22837     22838
     22835     22834     22837     22839     22835     22834     22837     22840
     22836     22834     22837     22838     22836     22834     22837     22839
     22836     22834     22837     22840     22838     22837     22840     22841
     22838     22837     22840     22842     22838     22837     22840     22843
     22839     22837     22840     22841     22839     22837     22840     22842
     22839     22837     22840     22843     22844     22847     22850     22851
     22844     22847     22850     22852     22844     22847     22850     22853
     22845     22844     22847     22848     22845     22844     22847     22849
     22845     22844     22847     22850     22846     22844     22847     22848
     22846     22844     22847     22849     22846     22844     22847     22850
     22847     22850     22853     22854     22847     22850     22853     22855
     22847     22850     22853     22856     22848     22847     22850     22851
     22848     22847     22850     22852     22848     22847     22850     22853
     22849     22847     22850     22851     22849     22847     22850     22852
     22849     22847     22850     22853     22850     22853     22856     22857
     22850     22853     22856     22858     22850     22853     22856     22859
     22851     22850     22853     22854     22851     22850     22853     22855
     22851     22850     22853     22856     22852     22850     22853     22854
     22852     22850     22853     22855     22852     22850     22853     22856
     22853     22856     22859     22860     22853     22856     22859     22861
     22853     22856     22859     22862     22854     22853     22856     22857
     22854     22853     22856     22858     22854     22853     22856     22859
     22855     22853     22856     22857     22855     22853     22856     22858
     22855     22853     22856     22859     22856     22859     22862     22863
     22856     22859     22862     22864     22857     22856     22859     22860
     22857     22856     22859     22861     22857     22856     22859     22862
     22858     22856     22859     22860     22858     22856     22859     22861
     22858     22856     22859     22862     22859     22862     22864     22865
     22859     22862     22864     22866     22860     22859     22862     22863
     22860     22859     22862     22864     22861     22859     22862     22863
     22861     22859     22862     22864     22862     22864     22866     22867
     22862     22864     22866     22868     22862     22864     22866     22869
     22863     22862     22864     22865     22863     22862     22864     22866
     22864     22866     22869     22870     22864     22866     22869     22871
     22864     22866     22869     22872     22865     22864     22866     22867
     22865     22864     22866     22868     22865     22864     22866     22869
     22866     22869     22872     22873     22866     22869     22872     22874
     22866     22869     22872     22875     22867     22866     22869     22870
     22867     22866     22869     22871     22867     22866     22869     22872
     22868     22866     22869     22870     22868     22866     22869     22871
     22868     22866     22869     22872     22869     22872     22875     22876
     22869     22872     22875     22877     22869     22872     22875     22878
     22870     22869     22872     22873     22870     22869     22872     22874
     22870     22869     22872     22875     22871     22869     22872     22873
     22871     22869     22872     22874     22871     22869     22872     22875
     22872     22875     22878     22879     22872     22875     22878     22880
     22872     22875     22878     22881     22873     22872     22875     22876
     22873     22872     22875     22877     22873     22872     22875     22878
     22874     22872     22875     22876     22874     22872     22875     22877
     22874     22872     22875     22878     22875     22878     22881     22882
     22875     22878     22881     22883     22875     22878     22881     22884
     22876     22875     22878     22879     22876     22875     22878     22880
     22876     22875     22878     22881     22877     22875     22878     22879
     22877     22875     22878     22880     22877     22875     22878     22881
     22878     22881     22884     22885     22878     22881     22884     22886
     22878     22881     22884     22887     22879     22878     22881     22882
     22879     22878     22881     22883     22879     22878     22881     22884
     22880     22878     22881     22882     22880     22878     22881     22883
     22880     22878     22881     22884     22881     22884     22887     22888
     22881     22884     22887     22889     22881     22884     22887     22890
     22882     22881     22884     22885     22882     22881     22884     22886
     22882     22881     22884     22887     22883     22881     22884     22885
     22883     22881     22884     22886     22883     22881     22884     22887
     22885     22884     22887     22888     22885     22884     22887     22889
     22885     22884     22887     22890     22886     22884     22887     22888
     22886     22884     22887     22889     22886     22884     22887     22890
     22891     22895     22898     22899     22891     22895     22898     22929
     22891     22937     22934     22929     22891     22937     22934     22935
     22891     22937     22934     22936     22892     22891     22893     22894
     22892     22891     22895     22896     22892     22891     22895     22897
     22892     22891     22895     22898     22892     22891     22937     22934
     22892     22891     22937     22938     22892     22891     22937     22939
     22893     22891     22895     22896     22893     22891     22895     22897
     22893     22891     22895     22898     22893     22891     22937     22934
     22893     22891     22937     22938     22893     22891     22937     22939
     22894     22893     22891     22895     22894     22893     22891     22937
     22895     22891     22937     22934     22895     22891     22937     22938
     22895     22891     22937     22939     22895     22898     22899     22900
     22895     22898     22899     22901     22895     22898     22929     22927
     22895     22898     22929     22930     22895     22898     22929     22934
     22896     22895     22891     22937     22896     22895     22898     22899
     22896     22895     22898     22929     22897     22895     22891     22937
     22897     22895     22898     22899     22897     22895     22898     22929
     22898     22895     22891     22937     22898     22899     22901     22902
     22898     22899     22901     22903     22898     22899     22901     22904
     22898     22929     22927     22904     22898     22929     22927     22924
     22898     22929     22927     22928     22898     22929     22930     22931
     22898     22929     22930     22932     22898     22929     22930     22933
     22898     22929     22934     22935     22898     22929     22934     22936
     22898     22929     22934     22937     22899     22898     22929     22927
     22899     22898     22929     22930     22899     22898     22929     22934
     22899     22901     22904     22905     22899     22901     22904     22906
     22899     22901     22904     22927     22900     22899     22898     22929
     22900     22899     22901     22902     22900     22899     22901     22903
     22900     22899     22901     22904     22901     22899     22898     22929
     22901     22904     22906     22907     22901     22904     22906     22908
     22901     22904     22906     22916     22901     22904     22927     22924
     22901     22904     22927     22928     22901     22904     22927     22929
     22902     22901     22904     22905     22902     22901     22904     22906
     22902     22901     22904     22927     22903     22901     22904     22905
     22903     22901     22904     22906     22903     22901     22904     22927
     22904     22906     22908     22909     22904     22906     22908     22910
     22904     22906     22908     22911     22904     22906     22916     22914
     22904     22906     22916     22917     22904     22906     22916     22921
     22904     22927     22924     22921     22904     22927     22924     22925
     22904     22927     22924     22926     22904     22927     22929     22930
     22904     22927     22929     22934     22905     22904     22906     22907
     22905     22904     22906     22908     22905     22904     22906     22916
     22905     22904     22927     22924     22905     22904     22927     22928
     22905     22904     22927     22929     22906     22904     22927     22924
     22906     22904     22927     22928     22906     22904     22927     22929
     22906     22908     22911     22912     22906     22908     22911     22913
     22906     22908     22911     22914     22906     22916     22914     22911
     22906     22916     22914     22915     22906     22916     22914     22940
     22906     22916     22917     22918     22906     22916     22917     22919
     22906     22916     22917     22920     22906     22916     22921     22922
     22906     22916     22921     22923     22906     22916     22921     22924
     22907     22906     22904     22927     22907     22906     22908     22909
     22907     22906     22908     22910     22907     22906     22908     22911
     22907     22906     22916     22914     22907     22906     22916     22917
     22907     22906     22916     22921     22908     22906     22904     22927
     22908     22906     22916     22914     22908     22906     22916     22917
     22908     22906     22916     22921     22908     22911     22914     22915
     22908     22911     22914     22916     22908     22911     22914     22940
     22909     22908     22906     22916     22909     22908     22911     22912
     22909     22908     22911     22913     22909     22908     22911     22914
     22910     22908     22906     22916     22910     22908     22911     22912
     22910     22908     22911     22913     22910     22908     22911     22914
     22911     22908     22906     22916     22911     22914     22916     22917
     22911     22914     22916     22921     22911     22914     22940     22941
     22911     22914     22940     22942     22911     22914     22940     22946
     22912     22911     22914     22915     22912     22911     22914     22916
     22912     22911     22914     22940     22913     22911     22914     22915
     22913     22911     22914     22916     22913     22911     22914     22940
     22914     22916     22917     22918     22914     22916     22917     22919
     22914     22916     22917     22920     22914     22916     22921     22922
     22914     22916     22921     22923     22914     22916     22921     22924
     22914     22940     22942     22943     22914     22940     22942     22944
     22914     22940     22942     22945     22914     22940     22946     22947
     22914     22940     22946     22948     22914     22940     22946     22949
     22915     22914     22916     22917     22915     22914     22916     22921
     22915     22914     22940     22941     22915     22914     22940     22942
     22915     22914     22940     22946     22916     22906     22904     22927
     22916     22914     22940     22941     22916     22914     22940     22942
     22916     22914     22940     22946     22916     22921     22924     22925
     22916     22921     22924     22926     22916     22921     22924     22927
     22917     22916     22914     22940     22917     22916     22921     22922
     22917     22916     22921     22923     22917     22916     22921     22924
     22918     22917     22916     22921     22919     22917     22916     22921
     22920     22917     22916     22921     22921     22916     22914     22940
     22921     22924     22927     22928     22921     22924     22927     22929
     22922     22921     22924     22925     22922     22921     22924     22926
     22922     22921     22924     22927     22923     22921     22924     22925
     22923     22921     22924     22926     22923     22921     22924     22927
     22924     22927     22929     22930     22924     22927     22929     22934
     22925     22924     22927     22928     22925     22924     22927     22929
     22926     22924     22927     22928     22926     22924     22927     22929
     22927     22929     22930     22931     22927     22929     22930     22932
     22927     22929     22930     22933     22927     22929     22934     22935
     22927     22929     22934     22936     22927     22929     22934     22937
     22928     22927     22929     22930     22928     22927     22929     22934
     22929     22934     22937     22938     22929     22934     22937     22939
     22930     22929     22934     22935     22930     22929     22934     22936
     22930     22929     22934     22937     22931     22930     22929     22934
     22932     22930     22929     22934     22933     22930     22929     22934
     22935     22934     22937     22938     22935     22934     22937     22939
     22936     22934     22937     22938     22936     22934     22937     22939
     22940     22946     22949     22950     22940     22946     22949     22951
     22940     22946     22949     22952     22941     22940     22942     22943
     22941     22940     22942     22944     22941     22940     22942     22945
     22941     22940     22946     22947     22941     22940     22946     22948
     22941     22940     22946     22949     22942     22940     22946     22947
     22942     22940     22946     22948     22942     22940     22946     22949
     22943     22942     22940     22946     22944     22942     22940     22946
     22945     22942     22940     22946     22946     22949     22952     22953
     22946     22949     22952     22954     22946     22949     22952     22955
     22947     22946     22949     22950     22947     22946     22949     22951
     22947     22946     22949     22952     22948     22946     22949     22950
     22948     22946     22949     22951     22948     22946     22949     22952
     22949     22952     22955     22956     22949     22952     22955     22957
     22949     22952     22955     22961     22950     22949     22952     22953
     22950     22949     22952     22954     22950     22949     22952     22955
     22951     22949     22952     22953     22951     22949     22952     22954
     22951     22949     22952     22955     22952     22955     22957     22958
     22952     22955     22957     22959     22952     22955     22957     22960
     22952     22955     22961     22962     22952     22955     22961     22963
     22952     22955     22961     22964     22953     22952     22955     22956
     22953     22952     22955     22957     22953     22952     22955     22961
     22954     22952     22955     22956     22954     22952     22955     22957
     22954     22952     22955     22961     22956     22955     22957     22958
     22956     22955     22957     22959     22956     22955     22957     22960
     22956     22955     22961     22962     22956     22955     22961     22963
     22956     22955     22961     22964     22957     22955     22961     22962
     22957     22955     22961     22963     22957     22955     22961     22964
     22958     22957     22955     22961     22959     22957     22955     22961
     22960     22957     22955     22961     22965     22969     22972     22973
     22965     22969     22972     22974     22965     22969     22972     22979
     22966     22965     22969     22970     22966     22965     22969     22971
     22966     22965     22969     22972     22967     22965     22969     22970
     22967     22965     22969     22971     22967     22965     22969     22972
     22968     22965     22969     22970     22968     22965     22969     22971
     22968     22965     22969     22972     22969     22972     22979     22975
     22970     22969     22972     22973     22970     22969     22972     22974
     22970     22969     22972     22979     22971     22969     22972     22973
     22971     22969     22972     22974     22971     22969     22972     22979
     22972     22979     22975     22976     22972     22979     22975     22977
     22972     22979     22975     22978     22973     22972     22979     22975
     22974     22972     22979     22975     22975     22978     22980     22981
     22975     22978     22980     22982     22975     22978     22980     22983
     22976     22975     22978     22980     22977     22975     22978     22980
     22978     22980     22983     22984     22978     22980     22983     22985
     22978     22980     22983     22991     22979     22975     22978     22980
     22980     22983     22985     22986     22980     22983     22991     22992
     22980     22983     22991     22993     22980     22983     22991     22994
     22981     22980     22983     22984     22981     22980     22983     22985
     22981     22980     22983     22991     22982     22980     22983     22984
     22982     22980     22983     22985     22982     22980     22983     22991
     22983     22985     22986     22987     22983     22985     22986     22988
     22983     22991     22994     22995     22984     22983     22985     22986
     22984     22983     22991     22992     22984     22983     22991     22993
     22984     22983     22991     22994     22985     22983     22991     22992
     22985     22983     22991     22993     22985     22983     22991     22994
     22985     22986     22988     22989     22985     22986     22988     22990
     22985     22986     22988     23000     22986     22985     22983     22991
     22986     22988     23000     23001     22986     22988     23000     23002
     22986     22988     23000     23003     22987     22986     22988     22989
     22987     22986     22988     22990     22987     22986     22988     23000
     22988     23000     23003     23004     22988     23000     23003     23005
     22988     23000     23003     23006     22989     22988     23000     23001
     22989     22988     23000     23002     22989     22988     23000     23003
     22990     22988     23000     23001     22990     22988     23000     23002
     22990     22988     23000     23003     22991     22994     22995     22996
     22991     22994     22995     22997     22992     22991     22994     22995
     22993     22991     22994     22995     22994     22995     22997     22998
     22994     22995     22997     22999     22994     22995     22997     23047
     22995     22997     23047     23048     22995     22997     23047     23049
     22995     22997     23047     23050     22996     22995     22997     22998
     22996     22995     22997     22999     22996     22995     22997     23047
     22997     23047     23050     23051     22997     23047     23050     23052
     22997     23047     23050     23053     22998     22997     23047     23048
     22998     22997     23047     23049     22998     22997     23047     23050
     22999     22997     23047     23048     22999     22997     23047     23049
     22999     22997     23047     23050     23000     23003     23006     23007
     23000     23003     23006     23008     23000     23003     23006     23009
     23001     23000     23003     23004     23001     23000     23003     23005
     23001     23000     23003     23006     23002     23000     23003     23004
     23002     23000     23003     23005     23002     23000     23003     23006
     23003     23006     23009     23010     23003     23006     23009     23011
     23003     23006     23009     23012     23004     23003     23006     23007
     23004     23003     23006     23008     23004     23003     23006     23009
     23005     23003     23006     23007     23005     23003     23006     23008
     23005     23003     23006     23009     23006     23009     23012     23013
     23006     23009     23012     23014     23006     23009     23012     23015
     23007     23006     23009     23010     23007     23006     23009     23011
     23007     23006     23009     23012     23008     23006     23009     23010
     23008     23006     23009     23011     23008     23006     23009     23012
     23009     23012     23015     23016     23009     23012     23015     23017
     23009     23012     23015     23018     23010     23009     23012     23013
     23010     23009     23012     23014     23010     23009     23012     23015
     23011     23009     23012     23013     23011     23009     23012     23014
     23011     23009     23012     23015     23012     23015     23018     23019
     23012     23015     23018     23020     23013     23012     23015     23016
     23013     23012     23015     23017     23013     23012     23015     23018
     23014     23012     23015     23016     23014     23012     23015     23017
     23014     23012     23015     23018     23015     23018     23020     23021
     23015     23018     23020     23022     23016     23015     23018     23019
     23016     23015     23018     23020     23017     23015     23018     23019
     23017     23015     23018     23020     23018     23020     23022     23023
     23018     23020     23022     23024     23018     23020     23022     23025
     23019     23018     23020     23021     23019     23018     23020     23022
     23020     23022     23025     23026     23020     23022     23025     23027
     23020     23022     23025     23028     23021     23020     23022     23023
     23021     23020     23022     23024     23021     23020     23022     23025
     23022     23025     23028     23029     23022     23025     23028     23030
     23022     23025     23028     23031     23023     23022     23025     23026
     23023     23022     23025     23027     23023     23022     23025     23028
     23024     23022     23025     23026     23024     23022     23025     23027
     23024     23022     23025     23028     23025     23028     23031     23032
     23025     23028     23031     23033     23025     23028     23031     23034
     23026     23025     23028     23029     23026     23025     23028     23030
     23026     23025     23028     23031     23027     23025     23028     23029
     23027     23025     23028     23030     23027     23025     23028     23031
     23028     23031     23034     23035     23028     23031     23034     23036
     23028     23031     23034     23037     23029     23028     23031     23032
     23029     23028     23031     23033     23029     23028     23031     23034
     23030     23028     23031     23032     23030     23028     23031     23033
     23030     23028     23031     23034     23031     23034     23037     23038
     23031     23034     23037     23039     23031     23034     23037     23040
     23032     23031     23034     23035     23032     23031     23034     23036
     23032     23031     23034     23037     23033     23031     23034     23035
     23033     23031     23034     23036     23033     23031     23034     23037
     23034     23037     23040     23041     23034     23037     23040     23042
     23034     23037     23040     23043     23035     23034     23037     23038
     23035     23034     23037     23039     23035     23034     23037     23040
     23036     23034     23037     23038     23036     23034     23037     23039
     23036     23034     23037     23040     23037     23040     23043     23044
     23037     23040     23043     23045     23037     23040     23043     23046
     23038     23037     23040     23041     23038     23037     23040     23042
     23038     23037     23040     23043     23039     23037     23040     23041
     23039     23037     23040     23042     23039     23037     23040     23043
     23041     23040     23043     23044     23041     23040     23043     23045
     23041     23040     23043     23046     23042     23040     23043     23044
     23042     23040     23043     23045     23042     23040     23043     23046
     23047     23050     23053     23054     23047     23050     23053     23055
     23047     23050     23053     23056     23048     23047     23050     23051
     23048     23047     23050     23052     23048     23047     23050     23053
     23049     23047     23050     23051     23049     23047     23050     23052
     23049     23047     23050     23053     23050     23053     23056     23057
     23050     23053     23056     23058     23050     23053     23056     23059
     23051     23050     23053     23054     23051     23050     23053     23055
     23051     23050     23053     23056     23052     23050     23053     23054
     23052     23050     23053     23055     23052     23050     23053     23056
     23053     23056     23059     23060     23053     23056     23059     23061
     23053     23056     23059     23062     23054     23053     23056     23057
     23054     23053     23056     23058     23054     23053     23056     23059
     23055     23053     23056     23057     23055     23053     23056     23058
     23055     23053     23056     23059     23056     23059     23062     23063
     23056     23059     23062     23064     23056     23059     23062     23065
     23057     23056     23059     23060     23057     23056     23059     23061
     23057     23056     23059     23062     23058     23056     23059     23060
     23058     23056     23059     23061     23058     23056     23059     23062
     23059     23062     23065     23066     23059     23062     23065     23067
     23060     23059     23062     23063     23060     23059     23062     23064
     23060     23059     23062     23065     23061     23059     23062     23063
     23061     23059     23062     23064     23061     23059     23062     23065
     23062     23065     23067     23068     23062     23065     23067     23069
     23063     23062     23065     23066     23063     23062     23065     23067
     23064     23062     23065     23066     23064     23062     23065     23067
     23065     23067     23069     23070     23065     23067     23069     23071
     23065     23067     23069     23072     23066     23065     23067     23068
     23066     23065     23067     23069     23067     23069     23072     23073
     23067     23069     23072     23074     23067     23069     23072     23075
     23068     23067     23069     23070     23068     23067     23069     23071
     23068     23067     23069     23072     23069     23072     23075     23076
     23069     23072     23075     23077     23069     23072     23075     23078
     23070     23069     23072     23073     23070     23069     23072     23074
     23070     23069     23072     23075     23071     23069     23072     23073
     23071     23069     23072     23074     23071     23069     23072     23075
     23072     23075     23078     23079     23072     23075     23078     23080
     23072     23075     23078     23081     23073     23072     23075     23076
     23073     23072     23075     23077     23073     23072     23075     23078
     23074     23072     23075     23076     23074     23072     23075     23077
     23074     23072     23075     23078     23075     23078     23081     23082
     23075     23078     23081     23083     23075     23078     23081     23084
     23076     23075     23078     23079     23076     23075     23078     23080
     23076     23075     23078     23081     23077     23075     23078     23079
     23077     23075     23078     23080     23077     23075     23078     23081
     23078     23081     23084     23085     23078     23081     23084     23086
     23078     23081     23084     23087     23079     23078     23081     23082
     23079     23078     23081     23083     23079     23078     23081     23084
     23080     23078     23081     23082     23080     23078     23081     23083
     23080     23078     23081     23084     23081     23084     23087     23088
     23081     23084     23087     23089     23081     23084     23087     23090
     23082     23081     23084     23085     23082     23081     23084     23086
     23082     23081     23084     23087     23083     23081     23084     23085
     23083     23081     23084     23086     23083     23081     23084     23087
     23084     23087     23090     23091     23084     23087     23090     23092
     23084     23087     23090     23093     23085     23084     23087     23088
     23085     23084     23087     23089     23085     23084     23087     23090
     23086     23084     23087     23088     23086     23084     23087     23089
     23086     23084     23087     23090     23088     23087     23090     23091
     23088     23087     23090     23092     23088     23087     23090     23093
     23089     23087     23090     23091     23089     23087     23090     23092
     23089     23087     23090     23093     23094     23095     23110     23111
     23094     23095     23110     23112     23094     23095     23110     23116
     23095     23094     23098     23099     23095     23094     23098     23100
     23095     23094     23098     23101     23095     23094     23102     23103
     23095     23094     23102     23104     23095     23094     23102     23105
     23095     23094     23106     23107     23095     23094     23106     23108
     23095     23094     23106     23109     23095     23110     23116     23113
     23096     23095     23094     23098     23096     23095     23094     23102
     23096     23095     23094     23106     23096     23095     23110     23111
     23096     23095     23110     23112     23096     23095     23110     23116
     23097     23095     23094     23098     23097     23095     23094     23102
     23097     23095     23094     23106     23097     23095     23110     23111
     23097     23095     23110     23112     23097     23095     23110     23116
     23098     23094     23095     23110     23098     23094     23102     23103
     23098     23094     23102     23104     23098     23094     23102     23105
     23098     23094     23106     23107     23098     23094     23106     23108
     23098     23094     23106     23109     23099     23098     23094     23102
     23099     23098     23094     23106     23100     23098     23094     23102
     23100     23098     23094     23106     23101     23098     23094     23102
     23101     23098     23094     23106     23102     23094     23095     23110
     23102     23094     23106     23107     23102     23094     23106     23108
     23102     23094     23106     23109     23103     23102     23094     23106
     23104     23102     23094     23106     23105     23102     23094     23106
     23106     23094     23095     23110     23110     23116     23113     23114
     23110     23116     23113     23115     23110     23116     23113     23117
     23111     23110     23116     23113     23112     23110     23116     23113
     23113     23117     23118     23119     23113     23117     23118     23120
     23113     23117     23118     23121     23114     23113     23117     23118
     23115     23113     23117     23118     23116     23113     23117     23118
     23117     23118     23121     23122     23117     23118     23121     23123
     23117     23118     23121     23129     23118     23121     23123     23124
     23118     23121     23129     23130     23118     23121     23129     23131
     23118     23121     23129     23132     23119     23118     23121     23122
     23119     23118     23121     23123     23119     23118     23121     23129
     23120     23118     23121     23122     23120     23118     23121     23123
     23120     23118     23121     23129     23121     23123     23124     23125
     23121     23123     23124     23126     23121     23129     23132     23133
     23122     23121     23123     23124     23122     23121     23129     23130
     23122     23121     23129     23131     23122     23121     23129     23132
     23123     23121     23129     23130     23123     23121     23129     23131
     23123     23121     23129     23132     23123     23124     23126     23127
     23123     23124     23126     23128     23123     23124     23126     23138
     23124     23123     23121     23129     23124     23126     23138     23139
     23124     23126     23138     23140     23124     23126     23138     23141
     23125     23124     23126     23127     23125     23124     23126     23128
     23125     23124     23126     23138     23126     23138     23141     23142
     23126     23138     23141     23143     23126     23138     23141     23144
     23127     23126     23138     23139     23127     23126     23138     23140
     23127     23126     23138     23141     23128     23126     23138     23139
     23128     23126     23138     23140     23128     23126     23138     23141
     23129     23132     23133     23134     23129     23132     23133     23135
     23130     23129     23132     23133     23131     23129     23132     23133
     23132     23133     23135     23136     23132     23133     23135     23137
     23132     23133     23135     23185     23133     23135     23185     23186
     23133     23135     23185     23187     23133     23135     23185     23188
     23134     23133     23135     23136     23134     23133     23135     23137
     23134     23133     23135     23185     23135     23185     23188     23189
     23135     23185     23188     23190     23135     23185     23188     23191
     23136     23135     23185     23186     23136     23135     23185     23187
     23136     23135     23185     23188     23137     23135     23185     23186
     23137     23135     23185     23187     23137     23135     23185     23188
     23138     23141     23144     23145     23138     23141     23144     23146
     23138     23141     23144     23147     23139     23138     23141     23142
     23139     23138     23141     23143     23139     23138     23141     23144
     23140     23138     23141     23142     23140     23138     23141     23143
     23140     23138     23141     23144     23141     23144     23147     23148
     23141     23144     23147     23149     23141     23144     23147     23150
     23142     23141     23144     23145     23142     23141     23144     23146
     23142     23141     23144     23147     23143     23141     23144     23145
     23143     23141     23144     23146     23143     23141     23144     23147
     23144     23147     23150     23151     23144     23147     23150     23152
     23144     23147     23150     23153     23145     23144     23147     23148
     23145     23144     23147     23149     23145     23144     23147     23150
     23146     23144     23147     23148     23146     23144     23147     23149
     23146     23144     23147     23150     23147     23150     23153     23154
     23147     23150     23153     23155     23147     23150     23153     23156
     23148     23147     23150     23151     23148     23147     23150     23152
     23148     23147     23150     23153     23149     23147     23150     23151
     23149     23147     23150     23152     23149     23147     23150     23153
     23150     23153     23156     23157     23150     23153     23156     23158
     23151     23150     23153     23154     23151     23150     23153     23155
     23151     23150     23153     23156     23152     23150     23153     23154
     23152     23150     23153     23155     23152     23150     23153     23156
     23153     23156     23158     23159     23153     23156     23158     23160
     23154     23153     23156     23157     23154     23153     23156     23158
     23155     23153     23156     23157     23155     23153     23156     23158
     23156     23158     23160     23161     23156     23158     23160     23162
     23156     23158     23160     23163     23157     23156     23158     23159
     23157     23156     23158     23160     23158     23160     23163     23164
     23158     23160     23163     23165     23158     23160     23163     23166
     23159     23158     23160     23161     23159     23158     23160     23162
     23159     23158     23160     23163     23160     23163     23166     23167
     23160     23163     23166     23168     23160     23163     23166     23169
     23161     23160     23163     23164     23161     23160     23163     23165
     23161     23160     23163     23166     23162     23160     23163     23164
     23162     23160     23163     23165     23162     23160     23163     23166
     23163     23166     23169     23170     23163     23166     23169     23171
     23163     23166     23169     23172     23164     23163     23166     23167
     23164     23163     23166     23168     23164     23163     23166     23169
     23165     23163     23166     23167     23165     23163     23166     23168
     23165     23163     23166     23169     23166     23169     23172     23173
     23166     23169     23172     23174     23166     23169     23172     23175
     23167     23166     23169     23170     23167     23166     23169     23171
     23167     23166     23169     23172     23168     23166     23169     23170
     23168     23166     23169     23171     23168     23166     23169     23172
     23169     23172     23175     23176     23169     23172     23175     23177
     23169     23172     23175     23178     23170     23169     23172     23173
     23170     23169     23172     23174     23170     23169     23172     23175
     23171     23169     23172     23173     23171     23169     23172     23174
     23171     23169     23172     23175     23172     23175     23178     23179
     23172     23175     23178     23180     23172     23175     23178     23181
     23173     23172     23175     23176     23173     23172     23175     23177
     23173     23172     23175     23178     23174     23172     23175     23176
     23174     23172     23175     23177     23174     23172     23175     23178
     23175     23178     23181     23182     23175     23178     23181     23183
     23175     23178     23181     23184     23176     23175     23178     23179
     23176     23175     23178     23180     23176     23175     23178     23181
     23177     23175     23178     23179     23177     23175     23178     23180
     23177     23175     23178     23181     23179     23178     23181     23182
     23179     23178     23181     23183     23179     23178     23181     23184
     23180     23178     23181     23182     23180     23178     23181     23183
     23180     23178     23181     23184     23185     23188     23191     23192
     23185     23188     23191     23193     23185     23188     23191     23194
     23186     23185     23188     23189     23186     23185     23188     23190
     23186     23185     23188     23191     23187     23185     23188     23189
     23187     23185     23188     23190     23187     23185     23188     23191
     23188     23191     23194     23195     23188     23191     23194     23196
     23188     23191     23194     23197     23189     23188     23191     23192
     23189     23188     23191     23193     23189     23188     23191     23194
     23190     23188     23191     23192     23190     23188     23191     23193
     23190     23188     23191     23194     23191     23194     23197     23198
     23191     23194     23197     23199     23191     23194     23197     23200
     23192     23191     23194     23195     23192     23191     23194     23196
     23192     23191     23194     23197     23193     23191     23194     23195
     23193     23191     23194     23196     23193     23191     23194     23197
     23194     23197     23200     23201     23194     23197     23200     23202
     23194     23197     23200     23203     23195     23194     23197     23198
     23195     23194     23197     23199     23195     23194     23197     23200
     23196     23194     23197     23198     23196     23194     23197     23199
     23196     23194     23197     23200     23197     23200     23203     23204
     23197     23200     23203     23205     23198     23197     23200     23201
     23198     23197     23200     23202     23198     23197     23200     23203
     23199     23197     23200     23201     23199     23197     23200     23202
     23199     23197     23200     23203     23200     23203     23205     23206
     23200     23203     23205     23207     23201     23200     23203     23204
     23201     23200     23203     23205     23202     23200     23203     23204
     23202     23200     23203     23205     23203     23205     23207     23208
     23203     23205     23207     23209     23203     23205     23207     23210
     23204     23203     23205     23206     23204     23203     23205     23207
     23205     23207     23210     23211     23205     23207     23210     23212
     23205     23207     23210     23213     23206     23205     23207     23208
     23206     23205     23207     23209     23206     23205     23207     23210
     23207     23210     23213     23214     23207     23210     23213     23215
     23207     23210     23213     23216     23208     23207     23210     23211
     23208     23207     23210     23212     23208     23207     23210     23213
     23209     23207     23210     23211     23209     23207     23210     23212
     23209     23207     23210     23213     23210     23213     23216     23217
     23210     23213     23216     23218     23210     23213     23216     23219
     23211     23210     23213     23214     23211     23210     23213     23215
     23211     23210     23213     23216     23212     23210     23213     23214
     23212     23210     23213     23215     23212     23210     23213     23216
     23213     23216     23219     23220     23213     23216     23219     23221
     23213     23216     23219     23222     23214     23213     23216     23217
     23214     23213     23216     23218     23214     23213     23216     23219
     23215     23213     23216     23217     23215     23213     23216     23218
     23215     23213     23216     23219     23216     23219     23222     23223
     23216     23219     23222     23224     23216     23219     23222     23225
     23217     23216     23219     23220     23217     23216     23219     23221
     23217     23216     23219     23222     23218     23216     23219     23220
     23218     23216     23219     23221     23218     23216     23219     23222
     23219     23222     23225     23226     23219     23222     23225     23227
     23219     23222     23225     23228     23220     23219     23222     23223
     23220     23219     23222     23224     23220     23219     23222     23225
     23221     23219     23222     23223     23221     23219     23222     23224
     23221     23219     23222     23225     23222     23225     23228     23229
     23222     23225     23228     23230     23222     23225     23228     23231
     23223     23222     23225     23226     23223     23222     23225     23227
     23223     23222     23225     23228     23224     23222     23225     23226
     23224     23222     23225     23227     23224     23222     23225     23228
     23226     23225     23228     23229     23226     23225     23228     23230
     23226     23225     23228     23231     23227     23225     23228     23229
     23227     23225     23228     23230     23227     23225     23228     23231
     23232     23236     23239     23240     23232     23236     23239     23241
     23232     23236     23239     23246     23233     23232     23236     23237
     23233     23232     23236     23238     23233     23232     23236     23239
     23234     23232     23236     23237     23234     23232     23236     23238
     23234     23232     23236     23239     23235     23232     23236     23237
     23235     23232     23236     23238     23235     23232     23236     23239
     23236     23239     23246     23242     23237     23236     23239     23240
     23237     23236     23239     23241     23237     23236     23239     23246
     23238     23236     23239     23240     23238     23236     23239     23241
     23238     23236     23239     23246     23239     23246     23242     23243
     23239     23246     23242     23244     23239     23246     23242     23245
     23240     23239     23246     23242     23241     23239     23246     23242
     23242     23245     23247     23248     23242     23245     23247     23249
     23242     23245     23247     23250     23243     23242     23245     23247
     23244     23242     23245     23247     23245     23247     23250     23251
     23245     23247     23250     23252     23245     23247     23250     23258
     23246     23242     23245     23247     23247     23250     23252     23253
     23247     23250     23258     23259     23247     23250     23258     23260
     23247     23250     23258     23261     23248     23247     23250     23251
     23248     23247     23250     23252     23248     23247     23250     23258
     23249     23247     23250     23251     23249     23247     23250     23252
     23249     23247     23250     23258     23250     23252     23253     23254
     23250     23252     23253     23255     23250     23258     23261     23262
     23251     23250     23252     23253     23251     23250     23258     23259
     23251     23250     23258     23260     23251     23250     23258     23261
     23252     23250     23258     23259     23252     23250     23258     23260
     23252     23250     23258     23261     23252     23253     23255     23256
     23252     23253     23255     23257     23252     23253     23255     23267
     23253     23252     23250     23258     23253     23255     23267     23268
     23253     23255     23267     23269     23253     23255     23267     23270
     23254     23253     23255     23256     23254     23253     23255     23257
     23254     23253     23255     23267     23255     23267     23270     23271
     23255     23267     23270     23272     23255     23267     23270     23273
     23256     23255     23267     23268     23256     23255     23267     23269
     23256     23255     23267     23270     23257     23255     23267     23268
     23257     23255     23267     23269     23257     23255     23267     23270
     23258     23261     23262     23263     23258     23261     23262     23264
     23259     23258     23261     23262     23260     23258     23261     23262
     23261     23262     23264     23265     23261     23262     23264     23266
     23261     23262     23264     23314     23262     23264     23314     23315
     23262     23264     23314     23316     23262     23264     23314     23317
     23263     23262     23264     23265     23263     23262     23264     23266
     23263     23262     23264     23314     23264     23314     23317     23318
     23264     23314     23317     23319     23264     23314     23317     23320
     23265     23264     23314     23315     23265     23264     23314     23316
     23265     23264     23314     23317     23266     23264     23314     23315
     23266     23264     23314     23316     23266     23264     23314     23317
     23267     23270     23273     23274     23267     23270     23273     23275
     23267     23270     23273     23276     23268     23267     23270     23271
     23268     23267     23270     23272     23268     23267     23270     23273
     23269     23267     23270     23271     23269     23267     23270     23272
     23269     23267     23270     23273     23270     23273     23276     23277
     23270     23273     23276     23278     23270     23273     23276     23279
     23271     23270     23273     23274     23271     23270     23273     23275
     23271     23270     23273     23276     23272     23270     23273     23274
     23272     23270     23273     23275     23272     23270     23273     23276
     23273     23276     23279     23280     23273     23276     23279     23281
     23273     23276     23279     23282     23274     23273     23276     23277
     23274     23273     23276     23278     23274     23273     23276     23279
     23275     23273     23276     23277     23275     23273     23276     23278
     23275     23273     23276     23279     23276     23279     23282     23283
     23276     23279     23282     23284     23276     23279     23282     23285
     23277     23276     23279     23280     23277     23276     23279     23281
     23277     23276     23279     23282     23278     23276     23279     23280
     23278     23276     23279     23281     23278     23276     23279     23282
     23279     23282     23285     23286     23279     23282     23285     23287
     23280     23279     23282     23283     23280     23279     23282     23284
     23280     23279     23282     23285     23281     23279     23282     23283
     23281     23279     23282     23284     23281     23279     23282     23285
     23282     23285     23287     23288     23282     23285     23287     23289
     23283     23282     23285     23286     23283     23282     23285     23287
     23284     23282     23285     23286     23284     23282     23285     23287
     23285     23287     23289     23290     23285     23287     23289     23291
     23285     23287     23289     23292     23286     23285     23287     23288
     23286     23285     23287     23289     23287     23289     23292     23293
     23287     23289     23292     23294     23287     23289     23292     23295
     23288     23287     23289     23290     23288     23287     23289     23291
     23288     23287     23289     23292     23289     23292     23295     23296
     23289     23292     23295     23297     23289     23292     23295     23298
     23290     23289     23292     23293     23290     23289     23292     23294
     23290     23289     23292     23295     23291     23289     23292     23293
     23291     23289     23292     23294     23291     23289     23292     23295
     23292     23295     23298     23299     23292     23295     23298     23300
     23292     23295     23298     23301     23293     23292     23295     23296
     23293     23292     23295     23297     23293     23292     23295     23298
     23294     23292     23295     23296     23294     23292     23295     23297
     23294     23292     23295     23298     23295     23298     23301     23302
     23295     23298     23301     23303     23295     23298     23301     23304
     23296     23295     23298     23299     23296     23295     23298     23300
     23296     23295     23298     23301     23297     23295     23298     23299
     23297     23295     23298     23300     23297     23295     23298     23301
     23298     23301     23304     23305     23298     23301     23304     23306
     23298     23301     23304     23307     23299     23298     23301     23302
     23299     23298     23301     23303     23299     23298     23301     23304
     23300     23298     23301     23302     23300     23298     23301     23303
     23300     23298     23301     23304     23301     23304     23307     23308
     23301     23304     23307     23309     23301     23304     23307     23310
     23302     23301     23304     23305     23302     23301     23304     23306
     23302     23301     23304     23307     23303     23301     23304     23305
     23303     23301     23304     23306     23303     23301     23304     23307
     23304     23307     23310     23311     23304     23307     23310     23312
     23304     23307     23310     23313     23305     23304     23307     23308
     23305     23304     23307     23309     23305     23304     23307     23310
     23306     23304     23307     23308     23306     23304     23307     23309
     23306     23304     23307     23310     23308     23307     23310     23311
     23308     23307     23310     23312     23308     23307     23310     23313
     23309     23307     23310     23311     23309     23307     23310     23312
     23309     23307     23310     23313     23314     23317     23320     23321
     23314     23317     23320     23322     23314     23317     23320     23323
     23315     23314     23317     23318     23315     23314     23317     23319
     23315     23314     23317     23320     23316     23314     23317     23318
     23316     23314     23317     23319     23316     23314     23317     23320
     23317     23320     23323     23324     23317     23320     23323     23325
     23317     23320     23323     23326     23318     23317     23320     23321
     23318     23317     23320     23322     23318     23317     23320     23323
     23319     23317     23320     23321     23319     23317     23320     23322
     23319     23317     23320     23323     23320     23323     23326     23327
     23320     23323     23326     23328     23320     23323     23326     23329
     23321     23320     23323     23324     23321     23320     23323     23325
     23321     23320     23323     23326     23322     23320     23323     23324
     23322     23320     23323     23325     23322     23320     23323     23326
     23323     23326     23329     23330     23323     23326     23329     23331
     23323     23326     23329     23332     23324     23323     23326     23327
     23324     23323     23326     23328     23324     23323     23326     23329
     23325     23323     23326     23327     23325     23323     23326     23328
     23325     23323     23326     23329     23326     23329     23332     23333
     23326     23329     23332     23334     23327     23326     23329     23330
     23327     23326     23329     23331     23327     23326     23329     23332
     23328     23326     23329     23330     23328     23326     23329     23331
     23328     23326     23329     23332     23329     23332     23334     23335
     23329     23332     23334     23336     23330     23329     23332     23333
     23330     23329     23332     23334     23331     23329     23332     23333
     23331     23329     23332     23334     23332     23334     23336     23337
     23332     23334     23336     23338     23332     23334     23336     23339
     23333     23332     23334     23335     23333     23332     23334     23336
     23334     23336     23339     23340     23334     23336     23339     23341
     23334     23336     23339     23342     23335     23334     23336     23337
     23335     23334     23336     23338     23335     23334     23336     23339
     23336     23339     23342     23343     23336     23339     23342     23344
     23336     23339     23342     23345     23337     23336     23339     23340
     23337     23336     23339     23341     23337     23336     23339     23342
     23338     23336     23339     23340     23338     23336     23339     23341
     23338     23336     23339     23342     23339     23342     23345     23346
     23339     23342     23345     23347     23339     23342     23345     23348
     23340     23339     23342     23343     23340     23339     23342     23344
     23340     23339     23342     23345     23341     23339     23342     23343
     23341     23339     23342     23344     23341     23339     23342     23345
     23342     23345     23348     23349     23342     23345     23348     23350
     23342     23345     23348     23351     23343     23342     23345     23346
     23343     23342     23345     23347     23343     23342     23345     23348
     23344     23342     23345     23346     23344     23342     23345     23347
     23344     23342     23345     23348     23345     23348     23351     23352
     23345     23348     23351     23353     23345     23348     23351     23354
     23346     23345     23348     23349     23346     23345     23348     23350
     23346     23345     23348     23351     23347     23345     23348     23349
     23347     23345     23348     23350     23347     23345     23348     23351
     23348     23351     23354     23355     23348     23351     23354     23356
     23348     23351     23354     23357     23349     23348     23351     23352
     23349     23348     23351     23353     23349     23348     23351     23354
     23350     23348     23351     23352     23350     23348     23351     23353
     23350     23348     23351     23354     23351     23354     23357     23358
     23351     23354     23357     23359     23351     23354     23357     23360
     23352     23351     23354     23355     23352     23351     23354     23356
     23352     23351     23354     23357     23353     23351     23354     23355
     23353     23351     23354     23356     23353     23351     23354     23357
     23355     23354     23357     23358     23355     23354     23357     23359
     23355     23354     23357     23360     23356     23354     23357     23358
     23356     23354     23357     23359     23356     23354     23357     23360
     23361     23362     23377     23378     23361     23362     23377     23379
     23361     23362     23377     23383     23362     23361     23365     23366
     23362     23361     23365     23367     23362     23361     23365     23368
     23362     23361     23369     23370     23362     23361     23369     23371
     23362     23361     23369     23372     23362     23361     23373     23374
     23362     23361     23373     23375     23362     23361     23373     23376
     23362     23377     23383     23380     23363     23362     23361     23365
     23363     23362     23361     23369     23363     23362     23361     23373
     23363     23362     23377     23378     23363     23362     23377     23379
     23363     23362     23377     23383     23364     23362     23361     23365
     23364     23362     23361     23369     23364     23362     23361     23373
     23364     23362     23377     23378     23364     23362     23377     23379
     23364     23362     23377     23383     23365     23361     23362     23377
     23365     23361     23369     23370     23365     23361     23369     23371
     23365     23361     23369     23372     23365     23361     23373     23374
     23365     23361     23373     23375     23365     23361     23373     23376
     23366     23365     23361     23369     23366     23365     23361     23373
     23367     23365     23361     23369     23367     23365     23361     23373
     23368     23365     23361     23369     23368     23365     23361     23373
     23369     23361     23362     23377     23369     23361     23373     23374
     23369     23361     23373     23375     23369     23361     23373     23376
     23370     23369     23361     23373     23371     23369     23361     23373
     23372     23369     23361     23373     23373     23361     23362     23377
     23377     23383     23380     23381     23377     23383     23380     23382
     23377     23383     23380     23384     23378     23377     23383     23380
     23379     23377     23383     23380     23380     23384     23385     23386
     23380     23384     23385     23387     23380     23384     23385     23388
     23381     23380     23384     23385     23382     23380     23384     23385
     23383     23380     23384     23385     23384     23385     23388     23389
     23384     23385     23388     23390     23384     23385     23388     23396
     23385     23388     23390     23391     23385     23388     23396     23397
     23385     23388     23396     23398     23385     23388     23396     23399
     23386     23385     23388     23389     23386     23385     23388     23390
     23386     23385     23388     23396     23387     23385     23388     23389
     23387     23385     23388     23390     23387     23385     23388     23396
     23388     23390     23391     23392     23388     23390     23391     23393
     23388     23396     23399     23400     23389     23388     23390     23391
     23389     23388     23396     23397     23389     23388     23396     23398
     23389     23388     23396     23399     23390     23388     23396     23397
     23390     23388     23396     23398     23390     23388     23396     23399
     23390     23391     23393     23394     23390     23391     23393     23395
     23390     23391     23393     23405     23391     23390     23388     23396
     23391     23393     23405     23406     23391     23393     23405     23407
     23391     23393     23405     23408     23392     23391     23393     23394
     23392     23391     23393     23395     23392     23391     23393     23405
     23393     23405     23408     23409     23393     23405     23408     23410
     23393     23405     23408     23411     23394     23393     23405     23406
     23394     23393     23405     23407     23394     23393     23405     23408
     23395     23393     23405     23406     23395     23393     23405     23407
     23395     23393     23405     23408     23396     23399     23400     23401
     23396     23399     23400     23402     23397     23396     23399     23400
     23398     23396     23399     23400     23399     23400     23402     23403
     23399     23400     23402     23404     23399     23400     23402     23452
     23400     23402     23452     23453     23400     23402     23452     23454
     23400     23402     23452     23455     23401     23400     23402     23403
     23401     23400     23402     23404     23401     23400     23402     23452
     23402     23452     23455     23456     23402     23452     23455     23457
     23402     23452     23455     23458     23403     23402     23452     23453
     23403     23402     23452     23454     23403     23402     23452     23455
     23404     23402     23452     23453     23404     23402     23452     23454
     23404     23402     23452     23455     23405     23408     23411     23412
     23405     23408     23411     23413     23405     23408     23411     23414
     23406     23405     23408     23409     23406     23405     23408     23410
     23406     23405     23408     23411     23407     23405     23408     23409
     23407     23405     23408     23410     23407     23405     23408     23411
     23408     23411     23414     23415     23408     23411     23414     23416
     23408     23411     23414     23417     23409     23408     23411     23412
     23409     23408     23411     23413     23409     23408     23411     23414
     23410     23408     23411     23412     23410     23408     23411     23413
     23410     23408     23411     23414     23411     23414     23417     23418
     23411     23414     23417     23419     23411     23414     23417     23420
     23412     23411     23414     23415     23412     23411     23414     23416
     23412     23411     23414     23417     23413     23411     23414     23415
     23413     23411     23414     23416     23413     23411     23414     23417
     23414     23417     23420     23421     23414     23417     23420     23422
     23414     23417     23420     23423     23415     23414     23417     23418
     23415     23414     23417     23419     23415     23414     23417     23420
     23416     23414     23417     23418     23416     23414     23417     23419
     23416     23414     23417     23420     23417     23420     23423     23424
     23417     23420     23423     23425     23418     23417     23420     23421
     23418     23417     23420     23422     23418     23417     23420     23423
     23419     23417     23420     23421     23419     23417     23420     23422
     23419     23417     23420     23423     23420     23423     23425     23426
     23420     23423     23425     23427     23421     23420     23423     23424
     23421     23420     23423     23425     23422     23420     23423     23424
     23422     23420     23423     23425     23423     23425     23427     23428
     23423     23425     23427     23429     23423     23425     23427     23430
     23424     23423     23425     23426     23424     23423     23425     23427
     23425     23427     23430     23431     23425     23427     23430     23432
     23425     23427     23430     23433     23426     23425     23427     23428
     23426     23425     23427     23429     23426     23425     23427     23430
     23427     23430     23433     23434     23427     23430     23433     23435
     23427     23430     23433     23436     23428     23427     23430     23431
     23428     23427     23430     23432     23428     23427     23430     23433
     23429     23427     23430     23431     23429     23427     23430     23432
     23429     23427     23430     23433     23430     23433     23436     23437
     23430     23433     23436     23438     23430     23433     23436     23439
     23431     23430     23433     23434     23431     23430     23433     23435
     23431     23430     23433     23436     23432     23430     23433     23434
     23432     23430     23433     23435     23432     23430     23433     23436
     23433     23436     23439     23440     23433     23436     23439     23441
     23433     23436     23439     23442     23434     23433     23436     23437
     23434     23433     23436     23438     23434     23433     23436     23439
     23435     23433     23436     23437     23435     23433     23436     23438
     23435     23433     23436     23439     23436     23439     23442     23443
     23436     23439     23442     23444     23436     23439     23442     23445
     23437     23436     23439     23440     23437     23436     23439     23441
     23437     23436     23439     23442     23438     23436     23439     23440
     23438     23436     23439     23441     23438     23436     23439     23442
     23439     23442     23445     23446     23439     23442     23445     23447
     23439     23442     23445     23448     23440     23439     23442     23443
     23440     23439     23442     23444     23440     23439     23442     23445
     23441     23439     23442     23443     23441     23439     23442     23444
     23441     23439     23442     23445     23442     23445     23448     23449
     23442     23445     23448     23450     23442     23445     23448     23451
     23443     23442     23445     23446     23443     23442     23445     23447
     23443     23442     23445     23448     23444     23442     23445     23446
     23444     23442     23445     23447     23444     23442     23445     23448
     23446     23445     23448     23449     23446     23445     23448     23450
     23446     23445     23448     23451     23447     23445     23448     23449
     23447     23445     23448     23450     23447     23445     23448     23451
     23452     23455     23458     23459     23452     23455     23458     23460
     23452     23455     23458     23461     23453     23452     23455     23456
     23453     23452     23455     23457     23453     23452     23455     23458
     23454     23452     23455     23456     23454     23452     23455     23457
     23454     23452     23455     23458     23455     23458     23461     23462
     23455     23458     23461     23463     23455     23458     23461     23464
     23456     23455     23458     23459     23456     23455     23458     23460
     23456     23455     23458     23461     23457     23455     23458     23459
     23457     23455     23458     23460     23457     23455     23458     23461
     23458     23461     23464     23465     23458     23461     23464     23466
     23458     23461     23464     23467     23459     23458     23461     23462
     23459     23458     23461     23463     23459     23458     23461     23464
     23460     23458     23461     23462     23460     23458     23461     23463
     23460     23458     23461     23464     23461     23464     23467     23468
     23461     23464     23467     23469     23461     23464     23467     23470
     23462     23461     23464     23465     23462     23461     23464     23466
     23462     23461     23464     23467     23463     23461     23464     23465
     23463     23461     23464     23466     23463     23461     23464     23467
     23464     23467     23470     23471     23464     23467     23470     23472
     23465     23464     23467     23468     23465     23464     23467     23469
     23465     23464     23467     23470     23466     23464     23467     23468
     23466     23464     23467     23469     23466     23464     23467     23470
     23467     23470     23472     23473     23467     23470     23472     23474
     23468     23467     23470     23471     23468     23467     23470     23472
     23469     23467     23470     23471     23469     23467     23470     23472
     23470     23472     23474     23475     23470     23472     23474     23476
     23470     23472     23474     23477     23471     23470     23472     23473
     23471     23470     23472     23474     23472     23474     23477     23478
     23472     23474     23477     23479     23472     23474     23477     23480
     23473     23472     23474     23475     23473     23472     23474     23476
     23473     23472     23474     23477     23474     23477     23480     23481
     23474     23477     23480     23482     23474     23477     23480     23483
     23475     23474     23477     23478     23475     23474     23477     23479
     23475     23474     23477     23480     23476     23474     23477     23478
     23476     23474     23477     23479     23476     23474     23477     23480
     23477     23480     23483     23484     23477     23480     23483     23485
     23477     23480     23483     23486     23478     23477     23480     23481
     23478     23477     23480     23482     23478     23477     23480     23483
     23479     23477     23480     23481     23479     23477     23480     23482
     23479     23477     23480     23483     23480     23483     23486     23487
     23480     23483     23486     23488     23480     23483     23486     23489
     23481     23480     23483     23484     23481     23480     23483     23485
     23481     23480     23483     23486     23482     23480     23483     23484
     23482     23480     23483     23485     23482     23480     23483     23486
     23483     23486     23489     23490     23483     23486     23489     23491
     23483     23486     23489     23492     23484     23483     23486     23487
     23484     23483     23486     23488     23484     23483     23486     23489
     23485     23483     23486     23487     23485     23483     23486     23488
     23485     23483     23486     23489     23486     23489     23492     23493
     23486     23489     23492     23494     23486     23489     23492     23495
     23487     23486     23489     23490     23487     23486     23489     23491
     23487     23486     23489     23492     23488     23486     23489     23490
     23488     23486     23489     23491     23488     23486     23489     23492
     23489     23492     23495     23496     23489     23492     23495     23497
     23489     23492     23495     23498     23490     23489     23492     23493
     23490     23489     23492     23494     23490     23489     23492     23495
     23491     23489     23492     23493     23491     23489     23492     23494
     23491     23489     23492     23495     23493     23492     23495     23496
     23493     23492     23495     23497     23493     23492     23495     23498
     23494     23492     23495     23496     23494     23492     23495     23497
     23494     23492     23495     23498     23499     23500     23515     23516
     23499     23500     23515     23517     23499     23500     23515     23521
     23500     23499     23503     23504     23500     23499     23503     23505
     23500     23499     23503     23506     23500     23499     23507     23508
     23500     23499     23507     23509     23500     23499     23507     23510
     23500     23499     23511     23512     23500     23499     23511     23513
     23500     23499     23511     23514     23500     23515     23521     23518
     23501     23500     23499     23503     23501     23500     23499     23507
     23501     23500     23499     23511     23501     23500     23515     23516
     23501     23500     23515     23517     23501     23500     23515     23521
     23502     23500     23499     23503     23502     23500     23499     23507
     23502     23500     23499     23511     23502     23500     23515     23516
     23502     23500     23515     23517     23502     23500     23515     23521
     23503     23499     23500     23515     23503     23499     23507     23508
     23503     23499     23507     23509     23503     23499     23507     23510
     23503     23499     23511     23512     23503     23499     23511     23513
     23503     23499     23511     23514     23504     23503     23499     23507
     23504     23503     23499     23511     23505     23503     23499     23507
     23505     23503     23499     23511     23506     23503     23499     23507
     23506     23503     23499     23511     23507     23499     23500     23515
     23507     23499     23511     23512     23507     23499     23511     23513
     23507     23499     23511     23514     23508     23507     23499     23511
     23509     23507     23499     23511     23510     23507     23499     23511
     23511     23499     23500     23515     23515     23521     23518     23519
     23515     23521     23518     23520     23515     23521     23518     23522
     23516     23515     23521     23518     23517     23515     23521     23518
     23518     23522     23523     23524     23518     23522     23523     23525
     23518     23522     23523     23526     23519     23518     23522     23523
     23520     23518     23522     23523     23521     23518     23522     23523
     23522     23523     23526     23527     23522     23523     23526     23528
     23522     23523     23526     23534     23523     23526     23528     23529
     23523     23526     23534     23535     23523     23526     23534     23536
     23523     23526     23534     23537     23524     23523     23526     23527
     23524     23523     23526     23528     23524     23523     23526     23534
     23525     23523     23526     23527     23525     23523     23526     23528
     23525     23523     23526     23534     23526     23528     23529     23530
     23526     23528     23529     23531     23526     23534     23537     23538
     23527     23526     23528     23529     23527     23526     23534     23535
     23527     23526     23534     23536     23527     23526     23534     23537
     23528     23526     23534     23535     23528     23526     23534     23536
     23528     23526     23534     23537     23528     23529     23531     23532
     23528     23529     23531     23533     23528     23529     23531     23543
     23529     23528     23526     23534     23529     23531     23543     23544
     23529     23531     23543     23545     23529     23531     23543     23546
     23530     23529     23531     23532     23530     23529     23531     23533
     23530     23529     23531     23543     23531     23543     23546     23547
     23531     23543     23546     23548     23531     23543     23546     23549
     23532     23531     23543     23544     23532     23531     23543     23545
     23532     23531     23543     23546     23533     23531     23543     23544
     23533     23531     23543     23545     23533     23531     23543     23546
     23534     23537     23538     23539     23534     23537     23538     23540
     23535     23534     23537     23538     23536     23534     23537     23538
     23537     23538     23540     23541     23537     23538     23540     23542
     23537     23538     23540     23590     23538     23540     23590     23591
     23538     23540     23590     23592     23538     23540     23590     23593
     23539     23538     23540     23541     23539     23538     23540     23542
     23539     23538     23540     23590     23540     23590     23593     23594
     23540     23590     23593     23595     23540     23590     23593     23596
     23541     23540     23590     23591     23541     23540     23590     23592
     23541     23540     23590     23593     23542     23540     23590     23591
     23542     23540     23590     23592     23542     23540     23590     23593
     23543     23546     23549     23550     23543     23546     23549     23551
     23543     23546     23549     23552     23544     23543     23546     23547
     23544     23543     23546     23548     23544     23543     23546     23549
     23545     23543     23546     23547     23545     23543     23546     23548
     23545     23543     23546     23549     23546     23549     23552     23553
     23546     23549     23552     23554     23546     23549     23552     23555
     23547     23546     23549     23550     23547     23546     23549     23551
     23547     23546     23549     23552     23548     23546     23549     23550
     23548     23546     23549     23551     23548     23546     23549     23552
     23549     23552     23555     23556     23549     23552     23555     23557
     23549     23552     23555     23558     23550     23549     23552     23553
     23550     23549     23552     23554     23550     23549     23552     23555
     23551     23549     23552     23553     23551     23549     23552     23554
     23551     23549     23552     23555     23552     23555     23558     23559
     23552     23555     23558     23560     23552     23555     23558     23561
     23553     23552     23555     23556     23553     23552     23555     23557
     23553     23552     23555     23558     23554     23552     23555     23556
     23554     23552     23555     23557     23554     23552     23555     23558
     23555     23558     23561     23562     23555     23558     23561     23563
     23556     23555     23558     23559     23556     23555     23558     23560
     23556     23555     23558     23561     23557     23555     23558     23559
     23557     23555     23558     23560     23557     23555     23558     23561
     23558     23561     23563     23564     23558     23561     23563     23565
     23559     23558     23561     23562     23559     23558     23561     23563
     23560     23558     23561     23562     23560     23558     23561     23563
     23561     23563     23565     23566     23561     23563     23565     23567
     23561     23563     23565     23568     23562     23561     23563     23564
     23562     23561     23563     23565     23563     23565     23568     23569
     23563     23565     23568     23570     23563     23565     23568     23571
     23564     23563     23565     23566     23564     23563     23565     23567
     23564     23563     23565     23568     23565     23568     23571     23572
     23565     23568     23571     23573     23565     23568     23571     23574
     23566     23565     23568     23569     23566     23565     23568     23570
     23566     23565     23568     23571     23567     23565     23568     23569
     23567     23565     23568     23570     23567     23565     23568     23571
     23568     23571     23574     23575     23568     23571     23574     23576
     23568     23571     23574     23577     23569     23568     23571     23572
     23569     23568     23571     23573     23569     23568     23571     23574
     23570     23568     23571     23572     23570     23568     23571     23573
     23570     23568     23571     23574     23571     23574     23577     23578
     23571     23574     23577     23579     23571     23574     23577     23580
     23572     23571     23574     23575     23572     23571     23574     23576
     23572     23571     23574     23577     23573     23571     23574     23575
     23573     23571     23574     23576     23573     23571     23574     23577
     23574     23577     23580     23581     23574     23577     23580     23582
     23574     23577     23580     23583     23575     23574     23577     23578
     23575     23574     23577     23579     23575     23574     23577     23580
     23576     23574     23577     23578     23576     23574     23577     23579
     23576     23574     23577     23580     23577     23580     23583     23584
     23577     23580     23583     23585     23577     23580     23583     23586
     23578     23577     23580     23581     23578     23577     23580     23582
     23578     23577     23580     23583     23579     23577     23580     23581
     23579     23577     23580     23582     23579     23577     23580     23583
     23580     23583     23586     23587     23580     23583     23586     23588
     23580     23583     23586     23589     23581     23580     23583     23584
     23581     23580     23583     23585     23581     23580     23583     23586
     23582     23580     23583     23584     23582     23580     23583     23585
     23582     23580     23583     23586     23584     23583     23586     23587
     23584     23583     23586     23588     23584     23583     23586     23589
     23585     23583     23586     23587     23585     23583     23586     23588
     23585     23583     23586     23589     23590     23593     23596     23597
     23590     23593     23596     23598     23590     23593     23596     23599
     23591     23590     23593     23594     23591     23590     23593     23595
     23591     23590     23593     23596     23592     23590     23593     23594
     23592     23590     23593     23595     23592     23590     23593     23596
     23593     23596     23599     23600     23593     23596     23599     23601
     23593     23596     23599     23602     23594     23593     23596     23597
     23594     23593     23596     23598     23594     23593     23596     23599
     23595     23593     23596     23597     23595     23593     23596     23598
     23595     23593     23596     23599     23596     23599     23602     23603
     23596     23599     23602     23604     23596     23599     23602     23605
     23597     23596     23599     23600     23597     23596     23599     23601
     23597     23596     23599     23602     23598     23596     23599     23600
     23598     23596     23599     23601     23598     23596     23599     23602
     23599     23602     23605     23606     23599     23602     23605     23607
     23599     23602     23605     23608     23600     23599     23602     23603
     23600     23599     23602     23604     23600     23599     23602     23605
     23601     23599     23602     23603     23601     23599     23602     23604
     23601     23599     23602     23605     23602     23605     23608     23609
     23602     23605     23608     23610     23603     23602     23605     23606
     23603     23602     23605     23607     23603     23602     23605     23608
     23604     23602     23605     23606     23604     23602     23605     23607
     23604     23602     23605     23608     23605     23608     23610     23611
     23605     23608     23610     23612     23606     23605     23608     23609
     23606     23605     23608     23610     23607     23605     23608     23609
     23607     23605     23608     23610     23608     23610     23612     23613
     23608     23610     23612     23614     23608     23610     23612     23615
     23609     23608     23610     23611     23609     23608     23610     23612
     23610     23612     23615     23616     23610     23612     23615     23617
     23610     23612     23615     23618     23611     23610     23612     23613
     23611     23610     23612     23614     23611     23610     23612     23615
     23612     23615     23618     23619     23612     23615     23618     23620
     23612     23615     23618     23621     23613     23612     23615     23616
     23613     23612     23615     23617     23613     23612     23615     23618
     23614     23612     23615     23616     23614     23612     23615     23617
     23614     23612     23615     23618     23615     23618     23621     23622
     23615     23618     23621     23623     23615     23618     23621     23624
     23616     23615     23618     23619     23616     23615     23618     23620
     23616     23615     23618     23621     23617     23615     23618     23619
     23617     23615     23618     23620     23617     23615     23618     23621
     23618     23621     23624     23625     23618     23621     23624     23626
     23618     23621     23624     23627     23619     23618     23621     23622
     23619     23618     23621     23623     23619     23618     23621     23624
     23620     23618     23621     23622     23620     23618     23621     23623
     23620     23618     23621     23624     23621     23624     23627     23628
     23621     23624     23627     23629     23621     23624     23627     23630
     23622     23621     23624     23625     23622     23621     23624     23626
     23622     23621     23624     23627     23623     23621     23624     23625
     23623     23621     23624     23626     23623     23621     23624     23627
     23624     23627     23630     23631     23624     23627     23630     23632
     23624     23627     23630     23633     23625     23624     23627     23628
     23625     23624     23627     23629     23625     23624     23627     23630
     23626     23624     23627     23628     23626     23624     23627     23629
     23626     23624     23627     23630     23627     23630     23633     23634
     23627     23630     23633     23635     23627     23630     23633     23636
     23628     23627     23630     23631     23628     23627     23630     23632
     23628     23627     23630     23633     23629     23627     23630     23631
     23629     23627     23630     23632     23629     23627     23630     23633
     23631     23630     23633     23634     23631     23630     23633     23635
     23631     23630     23633     23636     23632     23630     23633     23634
     23632     23630     23633     23635     23632     23630     23633     23636
     23637     23638     23653     23654     23637     23638     23653     23655
     23637     23638     23653     23659     23638     23637     23641     23642
     23638     23637     23641     23643     23638     23637     23641     23644
     23638     23637     23645     23646     23638     23637     23645     23647
     23638     23637     23645     23648     23638     23637     23649     23650
     23638     23637     23649     23651     23638     23637     23649     23652
     23638     23653     23659     23656     23639     23638     23637     23641
     23639     23638     23637     23645     23639     23638     23637     23649
     23639     23638     23653     23654     23639     23638     23653     23655
     23639     23638     23653     23659     23640     23638     23637     23641
     23640     23638     23637     23645     23640     23638     23637     23649
     23640     23638     23653     23654     23640     23638     23653     23655
     23640     23638     23653     23659     23641     23637     23638     23653
     23641     23637     23645     23646     23641     23637     23645     23647
     23641     23637     23645     23648     23641     23637     23649     23650
     23641     23637     23649     23651     23641     23637     23649     23652
     23642     23641     23637     23645     23642     23641     23637     23649
     23643     23641     23637     23645     23643     23641     23637     23649
     23644     23641     23637     23645     23644     23641     23637     23649
     23645     23637     23638     23653     23645     23637     23649     23650
     23645     23637     23649     23651     23645     23637     23649     23652
     23646     23645     23637     23649     23647     23645     23637     23649
     23648     23645     23637     23649     23649     23637     23638     23653
     23653     23659     23656     23657     23653     23659     23656     23658
     23653     23659     23656     23660     23654     23653     23659     23656
     23655     23653     23659     23656     23656     23660     23661     23662
     23656     23660     23661     23663     23656     23660     23661     23664
     23657     23656     23660     23661     23658     23656     23660     23661
     23659     23656     23660     23661     23660     23661     23664     23665
     23660     23661     23664     23666     23660     23661     23664     23672
     23661     23664     23666     23667     23661     23664     23672     23673
     23661     23664     23672     23674     23661     23664     23672     23675
     23662     23661     23664     23665     23662     23661     23664     23666
     23662     23661     23664     23672     23663     23661     23664     23665
     23663     23661     23664     23666     23663     23661     23664     23672
     23664     23666     23667     23668     23664     23666     23667     23669
     23664     23672     23675     23676     23665     23664     23666     23667
     23665     23664     23672     23673     23665     23664     23672     23674
     23665     23664     23672     23675     23666     23664     23672     23673
     23666     23664     23672     23674     23666     23664     23672     23675
     23666     23667     23669     23670     23666     23667     23669     23671
     23666     23667     23669     23681     23667     23666     23664     23672
     23667     23669     23681     23682     23667     23669     23681     23683
     23667     23669     23681     23684     23668     23667     23669     23670
     23668     23667     23669     23671     23668     23667     23669     23681
     23669     23681     23684     23685     23669     23681     23684     23686
     23669     23681     23684     23687     23670     23669     23681     23682
     23670     23669     23681     23683     23670     23669     23681     23684
     23671     23669     23681     23682     23671     23669     23681     23683
     23671     23669     23681     23684     23672     23675     23676     23677
     23672     23675     23676     23678     23673     23672     23675     23676
     23674     23672     23675     23676     23675     23676     23678     23679
     23675     23676     23678     23680     23675     23676     23678     23728
     23676     23678     23728     23729     23676     23678     23728     23730
     23676     23678     23728     23731     23677     23676     23678     23679
     23677     23676     23678     23680     23677     23676     23678     23728
     23678     23728     23731     23732     23678     23728     23731     23733
     23678     23728     23731     23734     23679     23678     23728     23729
     23679     23678     23728     23730     23679     23678     23728     23731
     23680     23678     23728     23729     23680     23678     23728     23730
     23680     23678     23728     23731     23681     23684     23687     23688
     23681     23684     23687     23689     23681     23684     23687     23690
     23682     23681     23684     23685     23682     23681     23684     23686
     23682     23681     23684     23687     23683     23681     23684     23685
     23683     23681     23684     23686     23683     23681     23684     23687
     23684     23687     23690     23691     23684     23687     23690     23692
     23684     23687     23690     23693     23685     23684     23687     23688
     23685     23684     23687     23689     23685     23684     23687     23690
     23686     23684     23687     23688     23686     23684     23687     23689
     23686     23684     23687     23690     23687     23690     23693     23694
     23687     23690     23693     23695     23687     23690     23693     23696
     23688     23687     23690     23691     23688     23687     23690     23692
     23688     23687     23690     23693     23689     23687     23690     23691
     23689     23687     23690     23692     23689     23687     23690     23693
     23690     23693     23696     23697     23690     23693     23696     23698
     23690     23693     23696     23699     23691     23690     23693     23694
     23691     23690     23693     23695     23691     23690     23693     23696
     23692     23690     23693     23694     23692     23690     23693     23695
     23692     23690     23693     23696     23693     23696     23699     23700
     23693     23696     23699     23701     23694     23693     23696     23697
     23694     23693     23696     23698     23694     23693     23696     23699
     23695     23693     23696     23697     23695     23693     23696     23698
     23695     23693     23696     23699     23696     23699     23701     23702
     23696     23699     23701     23703     23697     23696     23699     23700
     23697     23696     23699     23701     23698     23696     23699     23700
     23698     23696     23699     23701     23699     23701     23703     23704
     23699     23701     23703     23705     23699     23701     23703     23706
     23700     23699     23701     23702     23700     23699     23701     23703
     23701     23703     23706     23707     23701     23703     23706     23708
     23701     23703     23706     23709     23702     23701     23703     23704
     23702     23701     23703     23705     23702     23701     23703     23706
     23703     23706     23709     23710     23703     23706     23709     23711
     23703     23706     23709     23712     23704     23703     23706     23707
     23704     23703     23706     23708     23704     23703     23706     23709
     23705     23703     23706     23707     23705     23703     23706     23708
     23705     23703     23706     23709     23706     23709     23712     23713
     23706     23709     23712     23714     23706     23709     23712     23715
     23707     23706     23709     23710     23707     23706     23709     23711
     23707     23706     23709     23712     23708     23706     23709     23710
     23708     23706     23709     23711     23708     23706     23709     23712
     23709     23712     23715     23716     23709     23712     23715     23717
     23709     23712     23715     23718     23710     23709     23712     23713
     23710     23709     23712     23714     23710     23709     23712     23715
     23711     23709     23712     23713     23711     23709     23712     23714
     23711     23709     23712     23715     23712     23715     23718     23719
     23712     23715     23718     23720     23712     23715     23718     23721
     23713     23712     23715     23716     23713     23712     23715     23717
     23713     23712     23715     23718     23714     23712     23715     23716
     23714     23712     23715     23717     23714     23712     23715     23718
     23715     23718     23721     23722     23715     23718     23721     23723
     23715     23718     23721     23724     23716     23715     23718     23719
     23716     23715     23718     23720     23716     23715     23718     23721
     23717     23715     23718     23719     23717     23715     23718     23720
     23717     23715     23718     23721     23718     23721     23724     23725
     23718     23721     23724     23726     23718     23721     23724     23727
     23719     23718     23721     23722     23719     23718     23721     23723
     23719     23718     23721     23724     23720     23718     23721     23722
     23720     23718     23721     23723     23720     23718     23721     23724
     23722     23721     23724     23725     23722     23721     23724     23726
     23722     23721     23724     23727     23723     23721     23724     23725
     23723     23721     23724     23726     23723     23721     23724     23727
     23728     23731     23734     23735     23728     23731     23734     23736
     23728     23731     23734     23737     23729     23728     23731     23732
     23729     23728     23731     23733     23729     23728     23731     23734
     23730     23728     23731     23732     23730     23728     23731     23733
     23730     23728     23731     23734     23731     23734     23737     23738
     23731     23734     23737     23739     23731     23734     23737     23740
     23732     23731     23734     23735     23732     23731     23734     23736
     23732     23731     23734     23737     23733     23731     23734     23735
     23733     23731     23734     23736     23733     23731     23734     23737
     23734     23737     23740     23741     23734     23737     23740     23742
     23734     23737     23740     23743     23735     23734     23737     23738
     23735     23734     23737     23739     23735     23734     23737     23740
     23736     23734     23737     23738     23736     23734     23737     23739
     23736     23734     23737     23740     23737     23740     23743     23744
     23737     23740     23743     23745     23737     23740     23743     23746
     23738     23737     23740     23741     23738     23737     23740     23742
     23738     23737     23740     23743     23739     23737     23740     23741
     23739     23737     23740     23742     23739     23737     23740     23743
     23740     23743     23746     23747     23740     23743     23746     23748
     23741     23740     23743     23744     23741     23740     23743     23745
     23741     23740     23743     23746     23742     23740     23743     23744
     23742     23740     23743     23745     23742     23740     23743     23746
     23743     23746     23748     23749     23743     23746     23748     23750
     23744     23743     23746     23747     23744     23743     23746     23748
     23745     23743     23746     23747     23745     23743     23746     23748
     23746     23748     23750     23751     23746     23748     23750     23752
     23746     23748     23750     23753     23747     23746     23748     23749
     23747     23746     23748     23750     23748     23750     23753     23754
     23748     23750     23753     23755     23748     23750     23753     23756
     23749     23748     23750     23751     23749     23748     23750     23752
     23749     23748     23750     23753     23750     23753     23756     23757
     23750     23753     23756     23758     23750     23753     23756     23759
     23751     23750     23753     23754     23751     23750     23753     23755
     23751     23750     23753     23756     23752     23750     23753     23754
     23752     23750     23753     23755     23752     23750     23753     23756
     23753     23756     23759     23760     23753     23756     23759     23761
     23753     23756     23759     23762     23754     23753     23756     23757
     23754     23753     23756     23758     23754     23753     23756     23759
     23755     23753     23756     23757     23755     23753     23756     23758
     23755     23753     23756     23759     23756     23759     23762     23763
     23756     23759     23762     23764     23756     23759     23762     23765
     23757     23756     23759     23760     23757     23756     23759     23761
     23757     23756     23759     23762     23758     23756     23759     23760
     23758     23756     23759     23761     23758     23756     23759     23762
     23759     23762     23765     23766     23759     23762     23765     23767
     23759     23762     23765     23768     23760     23759     23762     23763
     23760     23759     23762     23764     23760     23759     23762     23765
     23761     23759     23762     23763     23761     23759     23762     23764
     23761     23759     23762     23765     23762     23765     23768     23769
     23762     23765     23768     23770     23762     23765     23768     23771
     23763     23762     23765     23766     23763     23762     23765     23767
     23763     23762     23765     23768     23764     23762     23765     23766
     23764     23762     23765     23767     23764     23762     23765     23768
     23765     23768     23771     23772     23765     23768     23771     23773
     23765     23768     23771     23774     23766     23765     23768     23769
     23766     23765     23768     23770     23766     23765     23768     23771
     23767     23765     23768     23769     23767     23765     23768     23770
     23767     23765     23768     23771     23769     23768     23771     23772
     23769     23768     23771     23773     23769     23768     23771     23774
     23770     23768     23771     23772     23770     23768     23771     23773
     23770     23768     23771     23774     23775     23776     23791     23792
     23775     23776     23791     23793     23775     23776     23791     23797
     23776     23775     23779     23780     23776     23775     23779     23781
     23776     23775     23779     23782     23776     23775     23783     23784
     23776     23775     23783     23785     23776     23775     23783     23786
     23776     23775     23787     23788     23776     23775     23787     23789
     23776     23775     23787     23790     23776     23791     23797     23794
     23777     23776     23775     23779     23777     23776     23775     23783
     23777     23776     23775     23787     23777     23776     23791     23792
     23777     23776     23791     23793     23777     23776     23791     23797
     23778     23776     23775     23779     23778     23776     23775     23783
     23778     23776     23775     23787     23778     23776     23791     23792
     23778     23776     23791     23793     23778     23776     23791     23797
     23779     23775     23776     23791     23779     23775     23783     23784
     23779     23775     23783     23785     23779     23775     23783     23786
     23779     23775     23787     23788     23779     23775     23787     23789
     23779     23775     23787     23790     23780     23779     23775     23783
     23780     23779     23775     23787     23781     23779     23775     23783
     23781     23779     23775     23787     23782     23779     23775     23783
     23782     23779     23775     23787     23783     23775     23776     23791
     23783     23775     23787     23788     23783     23775     23787     23789
     23783     23775     23787     23790     23784     23783     23775     23787
     23785     23783     23775     23787     23786     23783     23775     23787
     23787     23775     23776     23791     23791     23797     23794     23795
     23791     23797     23794     23796     23791     23797     23794     23798
     23792     23791     23797     23794     23793     23791     23797     23794
     23794     23798     23799     23800     23794     23798     23799     23801
     23794     23798     23799     23802     23795     23794     23798     23799
     23796     23794     23798     23799     23797     23794     23798     23799
     23798     23799     23802     23803     23798     23799     23802     23804
     23798     23799     23802     23810     23799     23802     23804     23805
     23799     23802     23810     23811     23799     23802     23810     23812
     23799     23802     23810     23813     23800     23799     23802     23803
     23800     23799     23802     23804     23800     23799     23802     23810
     23801     23799     23802     23803     23801     23799     23802     23804
     23801     23799     23802     23810     23802     23804     23805     23806
     23802     23804     23805     23807     23802     23810     23813     23814
     23803     23802     23804     23805     23803     23802     23810     23811
     23803     23802     23810     23812     23803     23802     23810     23813
     23804     23802     23810     23811     23804     23802     23810     23812
     23804     23802     23810     23813     23804     23805     23807     23808
     23804     23805     23807     23809     23804     23805     23807     23819
     23805     23804     23802     23810     23805     23807     23819     23820
     23805     23807     23819     23821     23805     23807     23819     23822
     23806     23805     23807     23808     23806     23805     23807     23809
     23806     23805     23807     23819     23807     23819     23822     23823
     23807     23819     23822     23824     23807     23819     23822     23825
     23808     23807     23819     23820     23808     23807     23819     23821
     23808     23807     23819     23822     23809     23807     23819     23820
     23809     23807     23819     23821     23809     23807     23819     23822
     23810     23813     23814     23815     23810     23813     23814     23816
     23811     23810     23813     23814     23812     23810     23813     23814
     23813     23814     23816     23817     23813     23814     23816     23818
     23813     23814     23816     23866     23814     23816     23866     23867
     23814     23816     23866     23868     23814     23816     23866     23869
     23815     23814     23816     23817     23815     23814     23816     23818
     23815     23814     23816     23866     23816     23866     23869     23870
     23816     23866     23869     23871     23816     23866     23869     23872
     23817     23816     23866     23867     23817     23816     23866     23868
     23817     23816     23866     23869     23818     23816     23866     23867
     23818     23816     23866     23868     23818     23816     23866     23869
     23819     23822     23825     23826     23819     23822     23825     23827
     23819     23822     23825     23828     23820     23819     23822     23823
     23820     23819     23822     23824     23820     23819     23822     23825
     23821     23819     23822     23823     23821     23819     23822     23824
     23821     23819     23822     23825     23822     23825     23828     23829
     23822     23825     23828     23830     23822     23825     23828     23831
     23823     23822     23825     23826     23823     23822     23825     23827
     23823     23822     23825     23828     23824     23822     23825     23826
     23824     23822     23825     23827     23824     23822     23825     23828
     23825     23828     23831     23832     23825     23828     23831     23833
     23825     23828     23831     23834     23826     23825     23828     23829
     23826     23825     23828     23830     23826     23825     23828     23831
     23827     23825     23828     23829     23827     23825     23828     23830
     23827     23825     23828     23831     23828     23831     23834     23835
     23828     23831     23834     23836     23828     23831     23834     23837
     23829     23828     23831     23832     23829     23828     23831     23833
     23829     23828     23831     23834     23830     23828     23831     23832
     23830     23828     23831     23833     23830     23828     23831     23834
     23831     23834     23837     23838     23831     23834     23837     23839
     23832     23831     23834     23835     23832     23831     23834     23836
     23832     23831     23834     23837     23833     23831     23834     23835
     23833     23831     23834     23836     23833     23831     23834     23837
     23834     23837     23839     23840     23834     23837     23839     23841
     23835     23834     23837     23838     23835     23834     23837     23839
     23836     23834     23837     23838     23836     23834     23837     23839
     23837     23839     23841     23842     23837     23839     23841     23843
     23837     23839     23841     23844     23838     23837     23839     23840
     23838     23837     23839     23841     23839     23841     23844     23845
     23839     23841     23844     23846     23839     23841     23844     23847
     23840     23839     23841     23842     23840     23839     23841     23843
     23840     23839     23841     23844     23841     23844     23847     23848
     23841     23844     23847     23849     23841     23844     23847     23850
     23842     23841     23844     23845     23842     23841     23844     23846
     23842     23841     23844     23847     23843     23841     23844     23845
     23843     23841     23844     23846     23843     23841     23844     23847
     23844     23847     23850     23851     23844     23847     23850     23852
     23844     23847     23850     23853     23845     23844     23847     23848
     23845     23844     23847     23849     23845     23844     23847     23850
     23846     23844     23847     23848     23846     23844     23847     23849
     23846     23844     23847     23850     23847     23850     23853     23854
     23847     23850     23853     23855     23847     23850     23853     23856
     23848     23847     23850     23851     23848     23847     23850     23852
     23848     23847     23850     23853     23849     23847     23850     23851
     23849     23847     23850     23852     23849     23847     23850     23853
     23850     23853     23856     23857     23850     23853     23856     23858
     23850     23853     23856     23859     23851     23850     23853     23854
     23851     23850     23853     23855     23851     23850     23853     23856
     23852     23850     23853     23854     23852     23850     23853     23855
     23852     23850     23853     23856     23853     23856     23859     23860
     23853     23856     23859     23861     23853     23856     23859     23862
     23854     23853     23856     23857     23854     23853     23856     23858
     23854     23853     23856     23859     23855     23853     23856     23857
     23855     23853     23856     23858     23855     23853     23856     23859
     23856     23859     23862     23863     23856     23859     23862     23864
     23856     23859     23862     23865     23857     23856     23859     23860
     23857     23856     23859     23861     23857     23856     23859     23862
     23858     23856     23859     23860     23858     23856     23859     23861
     23858     23856     23859     23862     23860     23859     23862     23863
     23860     23859     23862     23864     23860     23859     23862     23865
     23861     23859     23862     23863     23861     23859     23862     23864
     23861     23859     23862     23865     23866     23869     23872     23873
     23866     23869     23872     23874     23866     23869     23872     23875
     23867     23866     23869     23870     23867     23866     23869     23871
     23867     23866     23869     23872     23868     23866     23869     23870
     23868     23866     23869     23871     23868     23866     23869     23872
     23869     23872     23875     23876     23869     23872     23875     23877
     23869     23872     23875     23878     23870     23869     23872     23873
     23870     23869     23872     23874     23870     23869     23872     23875
     23871     23869     23872     23873     23871     23869     23872     23874
     23871     23869     23872     23875     23872     23875     23878     23879
     23872     23875     23878     23880     23872     23875     23878     23881
     23873     23872     23875     23876     23873     23872     23875     23877
     23873     23872     23875     23878     23874     23872     23875     23876
     23874     23872     23875     23877     23874     23872     23875     23878
     23875     23878     23881     23882     23875     23878     23881     23883
     23875     23878     23881     23884     23876     23875     23878     23879
     23876     23875     23878     23880     23876     23875     23878     23881
     23877     23875     23878     23879     23877     23875     23878     23880
     23877     23875     23878     23881     23878     23881     23884     23885
     23878     23881     23884     23886     23879     23878     23881     23882
     23879     23878     23881     23883     23879     23878     23881     23884
     23880     23878     23881     23882     23880     23878     23881     23883
     23880     23878     23881     23884     23881     23884     23886     23887
     23881     23884     23886     23888     23882     23881     23884     23885
     23882     23881     23884     23886     23883     23881     23884     23885
     23883     23881     23884     23886     23884     23886     23888     23889
     23884     23886     23888     23890     23884     23886     23888     23891
     23885     23884     23886     23887     23885     23884     23886     23888
     23886     23888     23891     23892     23886     23888     23891     23893
     23886     23888     23891     23894     23887     23886     23888     23889
     23887     23886     23888     23890     23887     23886     23888     23891
     23888     23891     23894     23895     23888     23891     23894     23896
     23888     23891     23894     23897     23889     23888     23891     23892
     23889     23888     23891     23893     23889     23888     23891     23894
     23890     23888     23891     23892     23890     23888     23891     23893
     23890     23888     23891     23894     23891     23894     23897     23898
     23891     23894     23897     23899     23891     23894     23897     23900
     23892     23891     23894     23895     23892     23891     23894     23896
     23892     23891     23894     23897     23893     23891     23894     23895
     23893     23891     23894     23896     23893     23891     23894     23897
     23894     23897     23900     23901     23894     23897     23900     23902
     23894     23897     23900     23903     23895     23894     23897     23898
     23895     23894     23897     23899     23895     23894     23897     23900
     23896     23894     23897     23898     23896     23894     23897     23899
     23896     23894     23897     23900     23897     23900     23903     23904
     23897     23900     23903     23905     23897     23900     23903     23906
     23898     23897     23900     23901     23898     23897     23900     23902
     23898     23897     23900     23903     23899     23897     23900     23901
     23899     23897     23900     23902     23899     23897     23900     23903
     23900     23903     23906     23907     23900     23903     23906     23908
     23900     23903     23906     23909     23901     23900     23903     23904
     23901     23900     23903     23905     23901     23900     23903     23906
     23902     23900     23903     23904     23902     23900     23903     23905
     23902     23900     23903     23906     23903     23906     23909     23910
     23903     23906     23909     23911     23903     23906     23909     23912
     23904     23903     23906     23907     23904     23903     23906     23908
     23904     23903     23906     23909     23905     23903     23906     23907
     23905     23903     23906     23908     23905     23903     23906     23909
     23907     23906     23909     23910     23907     23906     23909     23911
     23907     23906     23909     23912     23908     23906     23909     23910
     23908     23906     23909     23911     23908     23906     23909     23912
     23913     23914     23929     23930     23913     23914     23929     23931
     23913     23914     23929     23935     23914     23913     23917     23918
     23914     23913     23917     23919     23914     23913     23917     23920
     23914     23913     23921     23922     23914     23913     23921     23923
     23914     23913     23921     23924     23914     23913     23925     23926
     23914     23913     23925     23927     23914     23913     23925     23928
     23914     23929     23935     23932     23915     23914     23913     23917
     23915     23914     23913     23921     23915     23914     23913     23925
     23915     23914     23929     23930     23915     23914     23929     23931
     23915     23914     23929     23935     23916     23914     23913     23917
     23916     23914     23913     23921     23916     23914     23913     23925
     23916     23914     23929     23930     23916     23914     23929     23931
     23916     23914     23929     23935     23917     23913     23914     23929
     23917     23913     23921     23922     23917     23913     23921     23923
     23917     23913     23921     23924     23917     23913     23925     23926
     23917     23913     23925     23927     23917     23913     23925     23928
     23918     23917     23913     23921     23918     23917     23913     23925
     23919     23917     23913     23921     23919     23917     23913     23925
     23920     23917     23913     23921     23920     23917     23913     23925
     23921     23913     23914     23929     23921     23913     23925     23926
     23921     23913     23925     23927     23921     23913     23925     23928
     23922     23921     23913     23925     23923     23921     23913     23925
     23924     23921     23913     23925     23925     23913     23914     23929
     23929     23935     23932     23933     23929     23935     23932     23934
     23929     23935     23932     23936     23930     23929     23935     23932
     23931     23929     23935     23932     23932     23936     23937     23938
     23932     23936     23937     23939     23932     23936     23937     23940
     23933     23932     23936     23937     23934     23932     23936     23937
     23935     23932     23936     23937     23936     23937     23940     23941
     23936     23937     23940     23942     23936     23937     23940     23948
     23937     23940     23942     23943     23937     23940     23948     23949
     23937     23940     23948     23950     23937     23940     23948     23951
     23938     23937     23940     23941     23938     23937     23940     23942
     23938     23937     23940     23948     23939     23937     23940     23941
     23939     23937     23940     23942     23939     23937     23940     23948
     23940     23942     23943     23944     23940     23942     23943     23945
     23940     23948     23951     23952     23941     23940     23942     23943
     23941     23940     23948     23949     23941     23940     23948     23950
     23941     23940     23948     23951     23942     23940     23948     23949
     23942     23940     23948     23950     23942     23940     23948     23951
     23942     23943     23945     23946     23942     23943     23945     23947
     23942     23943     23945     23957     23943     23942     23940     23948
     23943     23945     23957     23958     23943     23945     23957     23959
     23943     23945     23957     23960     23944     23943     23945     23946
     23944     23943     23945     23947     23944     23943     23945     23957
     23945     23957     23960     23961     23945     23957     23960     23962
     23945     23957     23960     23963     23946     23945     23957     23958
     23946     23945     23957     23959     23946     23945     23957     23960
     23947     23945     23957     23958     23947     23945     23957     23959
     23947     23945     23957     23960     23948     23951     23952     23953
     23948     23951     23952     23954     23949     23948     23951     23952
     23950     23948     23951     23952     23951     23952     23954     23955
     23951     23952     23954     23956     23951     23952     23954     24004
     23952     23954     24004     24005     23952     23954     24004     24006
     23952     23954     24004     24007     23953     23952     23954     23955
     23953     23952     23954     23956     23953     23952     23954     24004
     23954     24004     24007     24008     23954     24004     24007     24009
     23954     24004     24007     24010     23955     23954     24004     24005
     23955     23954     24004     24006     23955     23954     24004     24007
     23956     23954     24004     24005     23956     23954     24004     24006
     23956     23954     24004     24007     23957     23960     23963     23964
     23957     23960     23963     23965     23957     23960     23963     23966
     23958     23957     23960     23961     23958     23957     23960     23962
     23958     23957     23960     23963     23959     23957     23960     23961
     23959     23957     23960     23962     23959     23957     23960     23963
     23960     23963     23966     23967     23960     23963     23966     23968
     23960     23963     23966     23969     23961     23960     23963     23964
     23961     23960     23963     23965     23961     23960     23963     23966
     23962     23960     23963     23964     23962     23960     23963     23965
     23962     23960     23963     23966     23963     23966     23969     23970
     23963     23966     23969     23971     23963     23966     23969     23972
     23964     23963     23966     23967     23964     23963     23966     23968
     23964     23963     23966     23969     23965     23963     23966     23967
     23965     23963     23966     23968     23965     23963     23966     23969
     23966     23969     23972     23973     23966     23969     23972     23974
     23966     23969     23972     23975     23967     23966     23969     23970
     23967     23966     23969     23971     23967     23966     23969     23972
     23968     23966     23969     23970     23968     23966     23969     23971
     23968     23966     23969     23972     23969     23972     23975     23976
     23969     23972     23975     23977     23970     23969     23972     23973
     23970     23969     23972     23974     23970     23969     23972     23975
     23971     23969     23972     23973     23971     23969     23972     23974
     23971     23969     23972     23975     23972     23975     23977     23978
     23972     23975     23977     23979     23973     23972     23975     23976
     23973     23972     23975     23977     23974     23972     23975     23976
     23974     23972     23975     23977     23975     23977     23979     23980
     23975     23977     23979     23981     23975     23977     23979     23982
     23976     23975     23977     23978     23976     23975     23977     23979
     23977     23979     23982     23983     23977     23979     23982     23984
     23977     23979     23982     23985     23978     23977     23979     23980
     23978     23977     23979     23981     23978     23977     23979     23982
     23979     23982     23985     23986     23979     23982     23985     23987
     23979     23982     23985     23988     23980     23979     23982     23983
     23980     23979     23982     23984     23980     23979     23982     23985
     23981     23979     23982     23983     23981     23979     23982     23984
     23981     23979     23982     23985     23982     23985     23988     23989
     23982     23985     23988     23990     23982     23985     23988     23991
     23983     23982     23985     23986     23983     23982     23985     23987
     23983     23982     23985     23988     23984     23982     23985     23986
     23984     23982     23985     23987     23984     23982     23985     23988
     23985     23988     23991     23992     23985     23988     23991     23993
     23985     23988     23991     23994     23986     23985     23988     23989
     23986     23985     23988     23990     23986     23985     23988     23991
     23987     23985     23988     23989     23987     23985     23988     23990
     23987     23985     23988     23991     23988     23991     23994     23995
     23988     23991     23994     23996     23988     23991     23994     23997
     23989     23988     23991     23992     23989     23988     23991     23993
     23989     23988     23991     23994     23990     23988     23991     23992
     23990     23988     23991     23993     23990     23988     23991     23994
     23991     23994     23997     23998     23991     23994     23997     23999
     23991     23994     23997     24000     23992     23991     23994     23995
     23992     23991     23994     23996     23992     23991     23994     23997
     23993     23991     23994     23995     23993     23991     23994     23996
     23993     23991     23994     23997     23994     23997     24000     24001
     23994     23997     24000     24002     23994     23997     24000     24003
     23995     23994     23997     23998     23995     23994     23997     23999
     23995     23994     23997     24000     23996     23994     23997     23998
     23996     23994     23997     23999     23996     23994     23997     24000
     23998     23997     24000     24001     23998     23997     24000     24002
     23998     23997     24000     24003     23999     23997     24000     24001
     23999     23997     24000     24002     23999     23997     24000     24003
     24004     24007     24010     24011     24004     24007     24010     24012
     24004     24007     24010     24013     24005     24004     24007     24008
     24005     24004     24007     24009     24005     24004     24007     24010
     24006     24004     24007     24008     24006     24004     24007     24009
     24006     24004     24007     24010     24007     24010     24013     24014
     24007     24010     24013     24015     24007     24010     24013     24016
     24008     24007     24010     24011     24008     24007     24010     24012
     24008     24007     24010     24013     24009     24007     24010     24011
     24009     24007     24010     24012     24009     24007     24010     24013
     24010     24013     24016     24017     24010     24013     24016     24018
     24010     24013     24016     24019     24011     24010     24013     24014
     24011     24010     24013     24015     24011     24010     24013     24016
     24012     24010     24013     24014     24012     24010     24013     24015
     24012     24010     24013     24016     24013     24016     24019     24020
     24013     24016     24019     24021     24013     24016     24019     24022
     24014     24013     24016     24017     24014     24013     24016     24018
     24014     24013     24016     24019     24015     24013     24016     24017
     24015     24013     24016     24018     24015     24013     24016     24019
     24016     24019     24022     24023     24016     24019     24022     24024
     24017     24016     24019     24020     24017     24016     24019     24021
     24017     24016     24019     24022     24018     24016     24019     24020
     24018     24016     24019     24021     24018     24016     24019     24022
     24019     24022     24024     24025     24019     24022     24024     24026
     24020     24019     24022     24023     24020     24019     24022     24024
     24021     24019     24022     24023     24021     24019     24022     24024
     24022     24024     24026     24027     24022     24024     24026     24028
     24022     24024     24026     24029     24023     24022     24024     24025
     24023     24022     24024     24026     24024     24026     24029     24030
     24024     24026     24029     24031     24024     24026     24029     24032
     24025     24024     24026     24027     24025     24024     24026     24028
     24025     24024     24026     24029     24026     24029     24032     24033
     24026     24029     24032     24034     24026     24029     24032     24035
     24027     24026     24029     24030     24027     24026     24029     24031
     24027     24026     24029     24032     24028     24026     24029     24030
     24028     24026     24029     24031     24028     24026     24029     24032
     24029     24032     24035     24036     24029     24032     24035     24037
     24029     24032     24035     24038     24030     24029     24032     24033
     24030     24029     24032     24034     24030     24029     24032     24035
     24031     24029     24032     24033     24031     24029     24032     24034
     24031     24029     24032     24035     24032     24035     24038     24039
     24032     24035     24038     24040     24032     24035     24038     24041
     24033     24032     24035     24036     24033     24032     24035     24037
     24033     24032     24035     24038     24034     24032     24035     24036
     24034     24032     24035     24037     24034     24032     24035     24038
     24035     24038     24041     24042     24035     24038     24041     24043
     24035     24038     24041     24044     24036     24035     24038     24039
     24036     24035     24038     24040     24036     24035     24038     24041
     24037     24035     24038     24039     24037     24035     24038     24040
     24037     24035     24038     24041     24038     24041     24044     24045
     24038     24041     24044     24046     24038     24041     24044     24047
     24039     24038     24041     24042     24039     24038     24041     24043
     24039     24038     24041     24044     24040     24038     24041     24042
     24040     24038     24041     24043     24040     24038     24041     24044
     24041     24044     24047     24048     24041     24044     24047     24049
     24041     24044     24047     24050     24042     24041     24044     24045
     24042     24041     24044     24046     24042     24041     24044     24047
     24043     24041     24044     24045     24043     24041     24044     24046
     24043     24041     24044     24047     24045     24044     24047     24048
     24045     24044     24047     24049     24045     24044     24047     24050
     24046     24044     24047     24048     24046     24044     24047     24049
     24046     24044     24047     24050     24051     24064     24067     24068
     24051     24064     24067     24069     24051     24064     24067     24074
     24052     24051     24056     24057     24052     24051     24056     24058
     24052     24051     24056     24059     24052     24051     24060     24061
     24052     24051     24060     24062     24052     24051     24060     24063
     24052     24051     24064     24065     24052     24051     24064     24066
     24052     24051     24064     24067     24053     24052     24051     24056
     24053     24052     24051     24060     24053     24052     24051     24064
     24054     24052     24051     24056     24054     24052     24051     24060
     24054     24052     24051     24064     24055     24052     24051     24056
     24055     24052     24051     24060     24055     24052     24051     24064
     24056     24051     24060     24061     24056     24051     24060     24062
     24056     24051     24060     24063     24056     24051     24064     24065
     24056     24051     24064     24066     24056     24051     24064     24067
     24057     24056     24051     24060     24057     24056     24051     24064
     24058     24056     24051     24060     24058     24056     24051     24064
     24059     24056     24051     24060     24059     24056     24051     24064
     24060     24051     24064     24065     24060     24051     24064     24066
     24060     24051     24064     24067     24061     24060     24051     24064
     24062     24060     24051     24064     24063     24060     24051     24064
     24064     24067     24074     24070     24065     24064     24067     24068
     24065     24064     24067     24069     24065     24064     24067     24074
     24066     24064     24067     24068     24066     24064     24067     24069
     24066     24064     24067     24074     24067     24074     24070     24071
     24067     24074     24070     24072     24067     24074     24070     24073
     24068     24067     24074     24070     24069     24067     24074     24070
     24070     24073     24075     24076     24070     24073     24075     24077
     24070     24073     24075     24080     24071     24070     24073     24075
     24072     24070     24073     24075     24073     24075     24080     24078
     24073     24075     24080     24081     24073     24075     24080     24082
     24074     24070     24073     24075     24075     24080     24078     24079
     24075     24080     24078     24130     24075     24080     24082     24083
     24075     24080     24082     24084     24075     24080     24082     24086
     24076     24075     24080     24078     24076     24075     24080     24081
     24076     24075     24080     24082     24077     24075     24080     24078
     24077     24075     24080     24081     24077     24075     24080     24082
     24078     24080     24082     24083     24078     24080     24082     24084
     24078     24080     24082     24086     24078     24130     24132     24133
     24078     24130     24132     24134     24078     24130     24132     24135
     24079     24078     24080     24081     24079     24078     24080     24082
     24079     24078     24130     24131     24079     24078     24130     24132
     24080     24078     24130     24131     24080     24078     24130     24132
     24080     24082     24084     24085     24080     24082     24086     24087
     24080     24082     24086     24088     24081     24080     24078     24130
     24081     24080     24082     24083     24081     24080     24082     24084
     24081     24080     24082     24086     24082     24080     24078     24130
     24082     24086     24088     24089     24082     24086     24088     24090
     24083     24082     24084     24085     24083     24082     24086     24087
     24083     24082     24086     24088     24084     24082     24086     24087
     24084     24082     24086     24088     24085     24084     24082     24086
     24086     24088     24090     24091     24086     24088     24090     24092
     24086     24088     24090     24093     24087     24086     24088     24089
     24087     24086     24088     24090     24088     24090     24093     24094
     24088     24090     24093     24095     24088     24090     24093     24096
     24089     24088     24090     24091     24089     24088     24090     24092
     24089     24088     24090     24093     24090     24093     24096     24097
     24090     24093     24096     24098     24090     24093     24096     24099
     24091     24090     24093     24094     24091     24090     24093     24095
     24091     24090     24093     24096     24092     24090     24093     24094
     24092     24090     24093     24095     24092     24090     24093     24096
     24093     24096     24099     24100     24093     24096     24099     24101
     24093     24096     24099     24102     24094     24093     24096     24097
     24094     24093     24096     24098     24094     24093     24096     24099
     24095     24093     24096     24097     24095     24093     24096     24098
     24095     24093     24096     24099     24096     24099     24102     24103
     24096     24099     24102     24104     24096     24099     24102     24105
     24097     24096     24099     24100     24097     24096     24099     24101
     24097     24096     24099     24102     24098     24096     24099     24100
     24098     24096     24099     24101     24098     24096     24099     24102
     24099     24102     24105     24106     24099     24102     24105     24107
     24099     24102     24105     24108     24100     24099     24102     24103
     24100     24099     24102     24104     24100     24099     24102     24105
     24101     24099     24102     24103     24101     24099     24102     24104
     24101     24099     24102     24105     24102     24105     24108     24109
     24102     24105     24108     24110     24102     24105     24108     24111
     24103     24102     24105     24106     24103     24102     24105     24107
     24103     24102     24105     24108     24104     24102     24105     24106
     24104     24102     24105     24107     24104     24102     24105     24108
     24105     24108     24111     24112     24105     24108     24111     24113
     24105     24108     24111     24114     24106     24105     24108     24109
     24106     24105     24108     24110     24106     24105     24108     24111
     24107     24105     24108     24109     24107     24105     24108     24110
     24107     24105     24108     24111     24108     24111     24114     24115
     24108     24111     24114     24116     24108     24111     24114     24117
     24109     24108     24111     24112     24109     24108     24111     24113
     24109     24108     24111     24114     24110     24108     24111     24112
     24110     24108     24111     24113     24110     24108     24111     24114
     24111     24114     24117     24118     24111     24114     24117     24119
     24111     24114     24117     24120     24112     24111     24114     24115
     24112     24111     24114     24116     24112     24111     24114     24117
     24113     24111     24114     24115     24113     24111     24114     24116
     24113     24111     24114     24117     24114     24117     24120     24121
     24114     24117     24120     24122     24114     24117     24120     24123
     24115     24114     24117     24118     24115     24114     24117     24119
     24115     24114     24117     24120     24116     24114     24117     24118
     24116     24114     24117     24119     24116     24114     24117     24120
     24117     24120     24123     24124     24117     24120     24123     24125
     24117     24120     24123     24126     24118     24117     24120     24121
     24118     24117     24120     24122     24118     24117     24120     24123
     24119     24117     24120     24121     24119     24117     24120     24122
     24119     24117     24120     24123     24120     24123     24126     24127
     24120     24123     24126     24128     24120     24123     24126     24129
     24121     24120     24123     24124     24121     24120     24123     24125
     24121     24120     24123     24126     24122     24120     24123     24124
     24122     24120     24123     24125     24122     24120     24123     24126
     24124     24123     24126     24127     24124     24123     24126     24128
     24124     24123     24126     24129     24125     24123     24126     24127
     24125     24123     24126     24128     24125     24123     24126     24129
     24130     24132     24135     24136     24130     24132     24135     24137
     24130     24132     24135     24138     24131     24130     24132     24133
     24131     24130     24132     24134     24131     24130     24132     24135
     24132     24135     24138     24139     24132     24135     24138     24140
     24132     24135     24138     24141     24133     24132     24135     24136
     24133     24132     24135     24137     24133     24132     24135     24138
     24134     24132     24135     24136     24134     24132     24135     24137
     24134     24132     24135     24138     24135     24138     24141     24142
     24135     24138     24141     24143     24135     24138     24141     24144
     24136     24135     24138     24139     24136     24135     24138     24140
     24136     24135     24138     24141     24137     24135     24138     24139
     24137     24135     24138     24140     24137     24135     24138     24141
     24138     24141     24144     24145     24138     24141     24144     24146
     24138     24141     24144     24147     24139     24138     24141     24142
     24139     24138     24141     24143     24139     24138     24141     24144
     24140     24138     24141     24142     24140     24138     24141     24143
     24140     24138     24141     24144     24141     24144     24147     24148
     24141     24144     24147     24149     24141     24144     24147     24150
     24142     24141     24144     24145     24142     24141     24144     24146
     24142     24141     24144     24147     24143     24141     24144     24145
     24143     24141     24144     24146     24143     24141     24144     24147
     24144     24147     24150     24151     24144     24147     24150     24152
     24144     24147     24150     24153     24145     24144     24147     24148
     24145     24144     24147     24149     24145     24144     24147     24150
     24146     24144     24147     24148     24146     24144     24147     24149
     24146     24144     24147     24150     24147     24150     24153     24154
     24147     24150     24153     24155     24147     24150     24153     24156
     24148     24147     24150     24151     24148     24147     24150     24152
     24148     24147     24150     24153     24149     24147     24150     24151
     24149     24147     24150     24152     24149     24147     24150     24153
     24150     24153     24156     24157     24150     24153     24156     24158
     24150     24153     24156     24159     24151     24150     24153     24154
     24151     24150     24153     24155     24151     24150     24153     24156
     24152     24150     24153     24154     24152     24150     24153     24155
     24152     24150     24153     24156     24153     24156     24159     24160
     24153     24156     24159     24161     24153     24156     24159     24162
     24154     24153     24156     24157     24154     24153     24156     24158
     24154     24153     24156     24159     24155     24153     24156     24157
     24155     24153     24156     24158     24155     24153     24156     24159
     24156     24159     24162     24163     24156     24159     24162     24164
     24156     24159     24162     24165     24157     24156     24159     24160
     24157     24156     24159     24161     24157     24156     24159     24162
     24158     24156     24159     24160     24158     24156     24159     24161
     24158     24156     24159     24162     24159     24162     24165     24166
     24159     24162     24165     24167     24159     24162     24165     24168
     24160     24159     24162     24163     24160     24159     24162     24164
     24160     24159     24162     24165     24161     24159     24162     24163
     24161     24159     24162     24164     24161     24159     24162     24165
     24162     24165     24168     24169     24162     24165     24168     24170
     24162     24165     24168     24171     24163     24162     24165     24166
     24163     24162     24165     24167     24163     24162     24165     24168
     24164     24162     24165     24166     24164     24162     24165     24167
     24164     24162     24165     24168     24165     24168     24171     24172
     24165     24168     24171     24173     24165     24168     24171     24174
     24166     24165     24168     24169     24166     24165     24168     24170
     24166     24165     24168     24171     24167     24165     24168     24169
     24167     24165     24168     24170     24167     24165     24168     24171
     24168     24171     24174     24175     24168     24171     24174     24176
     24168     24171     24174     24177     24169     24168     24171     24172
     24169     24168     24171     24173     24169     24168     24171     24174
     24170     24168     24171     24172     24170     24168     24171     24173
     24170     24168     24171     24174     24171     24174     24177     24178
     24171     24174     24177     24179     24171     24174     24177     24180
     24172     24171     24174     24175     24172     24171     24174     24176
     24172     24171     24174     24177     24173     24171     24174     24175
     24173     24171     24174     24176     24173     24171     24174     24177
     24174     24177     24180     24181     24174     24177     24180     24182
     24174     24177     24180     24183     24175     24174     24177     24178
     24175     24174     24177     24179     24175     24174     24177     24180
     24176     24174     24177     24178     24176     24174     24177     24179
     24176     24174     24177     24180     24177     24180     24183     24184
     24177     24180     24183     24185     24177     24180     24183     24186
     24178     24177     24180     24181     24178     24177     24180     24182
     24178     24177     24180     24183     24179     24177     24180     24181
     24179     24177     24180     24182     24179     24177     24180     24183
     24180     24183     24186     24187     24180     24183     24186     24188
     24180     24183     24186     24189     24181     24180     24183     24184
     24181     24180     24183     24185     24181     24180     24183     24186
     24182     24180     24183     24184     24182     24180     24183     24185
     24182     24180     24183     24186     24183     24186     24189     24190
     24183     24186     24189     24191     24183     24186     24189     24192
     24184     24183     24186     24187     24184     24183     24186     24188
     24184     24183     24186     24189     24185     24183     24186     24187
     24185     24183     24186     24188     24185     24183     24186     24189
     24186     24189     24192     24193     24186     24189     24192     24194
     24186     24189     24192     24195     24187     24186     24189     24190
     24187     24186     24189     24191     24187     24186     24189     24192
     24188     24186     24189     24190     24188     24186     24189     24191
     24188     24186     24189     24192     24189     24192     24195     24196
     24189     24192     24195     24197     24189     24192     24195     24198
     24190     24189     24192     24193     24190     24189     24192     24194
     24190     24189     24192     24195     24191     24189     24192     24193
     24191     24189     24192     24194     24191     24189     24192     24195
     24193     24192     24195     24196     24193     24192     24195     24197
     24193     24192     24195     24198     24194     24192     24195     24196
     24194     24192     24195     24197     24194     24192     24195     24198
     24199     24203     24206     24207     24199     24203     24206     24237
     24199     24245     24242     24237     24199     24245     24242     24243
     24199     24245     24242     24244     24200     24199     24201     24202
     24200     24199     24203     24204     24200     24199     24203     24205
     24200     24199     24203     24206     24200     24199     24245     24242
     24200     24199     24245     24246     24200     24199     24245     24247
     24201     24199     24203     24204     24201     24199     24203     24205
     24201     24199     24203     24206     24201     24199     24245     24242
     24201     24199     24245     24246     24201     24199     24245     24247
     24202     24201     24199     24203     24202     24201     24199     24245
     24203     24199     24245     24242     24203     24199     24245     24246
     24203     24199     24245     24247     24203     24206     24207     24208
     24203     24206     24207     24209     24203     24206     24237     24235
     24203     24206     24237     24238     24203     24206     24237     24242
     24204     24203     24199     24245     24204     24203     24206     24207
     24204     24203     24206     24237     24205     24203     24199     24245
     24205     24203     24206     24207     24205     24203     24206     24237
     24206     24203     24199     24245     24206     24207     24209     24210
     24206     24207     24209     24211     24206     24207     24209     24212
     24206     24237     24235     24212     24206     24237     24235     24232
     24206     24237     24235     24236     24206     24237     24238     24239
     24206     24237     24238     24240     24206     24237     24238     24241
     24206     24237     24242     24243     24206     24237     24242     24244
     24206     24237     24242     24245     24207     24206     24237     24235
     24207     24206     24237     24238     24207     24206     24237     24242
     24207     24209     24212     24213     24207     24209     24212     24214
     24207     24209     24212     24235     24208     24207     24206     24237
     24208     24207     24209     24210     24208     24207     24209     24211
     24208     24207     24209     24212     24209     24207     24206     24237
     24209     24212     24214     24215     24209     24212     24214     24216
     24209     24212     24214     24224     24209     24212     24235     24232
     24209     24212     24235     24236     24209     24212     24235     24237
     24210     24209     24212     24213     24210     24209     24212     24214
     24210     24209     24212     24235     24211     24209     24212     24213
     24211     24209     24212     24214     24211     24209     24212     24235
     24212     24214     24216     24217     24212     24214     24216     24218
     24212     24214     24216     24219     24212     24214     24224     24222
     24212     24214     24224     24225     24212     24214     24224     24229
     24212     24235     24232     24229     24212     24235     24232     24233
     24212     24235     24232     24234     24212     24235     24237     24238
     24212     24235     24237     24242     24213     24212     24214     24215
     24213     24212     24214     24216     24213     24212     24214     24224
     24213     24212     24235     24232     24213     24212     24235     24236
     24213     24212     24235     24237     24214     24212     24235     24232
     24214     24212     24235     24236     24214     24212     24235     24237
     24214     24216     24219     24220     24214     24216     24219     24221
     24214     24216     24219     24222     24214     24224     24222     24219
     24214     24224     24222     24223     24214     24224     24222     24248
     24214     24224     24225     24226     24214     24224     24225     24227
     24214     24224     24225     24228     24214     24224     24229     24230
     24214     24224     24229     24231     24214     24224     24229     24232
     24215     24214     24212     24235     24215     24214     24216     24217
     24215     24214     24216     24218     24215     24214     24216     24219
     24215     24214     24224     24222     24215     24214     24224     24225
     24215     24214     24224     24229     24216     24214     24212     24235
     24216     24214     24224     24222     24216     24214     24224     24225
     24216     24214     24224     24229     24216     24219     24222     24223
     24216     24219     24222     24224     24216     24219     24222     24248
     24217     24216     24214     24224     24217     24216     24219     24220
     24217     24216     24219     24221     24217     24216     24219     24222
     24218     24216     24214     24224     24218     24216     24219     24220
     24218     24216     24219     24221     24218     24216     24219     24222
     24219     24216     24214     24224     24219     24222     24224     24225
     24219     24222     24224     24229     24219     24222     24248     24249
     24219     24222     24248     24250     24219     24222     24248     24254
     24220     24219     24222     24223     24220     24219     24222     24224
     24220     24219     24222     24248     24221     24219     24222     24223
     24221     24219     24222     24224     24221     24219     24222     24248
     24222     24224     24225     24226     24222     24224     24225     24227
     24222     24224     24225     24228     24222     24224     24229     24230
     24222     24224     24229     24231     24222     24224     24229     24232
     24222     24248     24250     24251     24222     24248     24250     24252
     24222     24248     24250     24253     24222     24248     24254     24255
     24222     24248     24254     24256     24222     24248     24254     24257
     24223     24222     24224     24225     24223     24222     24224     24229
     24223     24222     24248     24249     24223     24222     24248     24250
     24223     24222     24248     24254     24224     24214     24212     24235
     24224     24222     24248     24249     24224     24222     24248     24250
     24224     24222     24248     24254     24224     24229     24232     24233
     24224     24229     24232     24234     24224     24229     24232     24235
     24225     24224     24222     24248     24225     24224     24229     24230
     24225     24224     24229     24231     24225     24224     24229     24232
     24226     24225     24224     24229     24227     24225     24224     24229
     24228     24225     24224     24229     24229     24224     24222     24248
     24229     24232     24235     24236     24229     24232     24235     24237
     24230     24229     24232     24233     24230     24229     24232     24234
     24230     24229     24232     24235     24231     24229     24232     24233
     24231     24229     24232     24234     24231     24229     24232     24235
     24232     24235     24237     24238     24232     24235     24237     24242
     24233     24232     24235     24236     24233     24232     24235     24237
     24234     24232     24235     24236     24234     24232     24235     24237
     24235     24237     24238     24239     24235     24237     24238     24240
     24235     24237     24238     24241     24235     24237     24242     24243
     24235     24237     24242     24244     24235     24237     24242     24245
     24236     24235     24237     24238     24236     24235     24237     24242
     24237     24242     24245     24246     24237     24242     24245     24247
     24238     24237     24242     24243     24238     24237     24242     24244
     24238     24237     24242     24245     24239     24238     24237     24242
     24240     24238     24237     24242     24241     24238     24237     24242
     24243     24242     24245     24246     24243     24242     24245     24247
     24244     24242     24245     24246     24244     24242     24245     24247
     24248     24254     24257     24258     24248     24254     24257     24259
     24248     24254     24257     24260     24249     24248     24250     24251
     24249     24248     24250     24252     24249     24248     24250     24253
     24249     24248     24254     24255     24249     24248     24254     24256
     24249     24248     24254     24257     24250     24248     24254     24255
     24250     24248     24254     24256     24250     24248     24254     24257
     24251     24250     24248     24254     24252     24250     24248     24254
     24253     24250     24248     24254     24254     24257     24260     24261
     24254     24257     24260     24262     24254     24257     24260     24263
     24255     24254     24257     24258     24255     24254     24257     24259
     24255     24254     24257     24260     24256     24254     24257     24258
     24256     24254     24257     24259     24256     24254     24257     24260
     24257     24260     24263     24264     24257     24260     24263     24265
     24257     24260     24263     24269     24258     24257     24260     24261
     24258     24257     24260     24262     24258     24257     24260     24263
     24259     24257     24260     24261     24259     24257     24260     24262
     24259     24257     24260     24263     24260     24263     24265     24266
     24260     24263     24265     24267     24260     24263     24265     24268
     24260     24263     24269     24270     24260     24263     24269     24271
     24260     24263     24269     24272     24261     24260     24263     24264
     24261     24260     24263     24265     24261     24260     24263     24269
     24262     24260     24263     24264     24262     24260     24263     24265
     24262     24260     24263     24269     24264     24263     24265     24266
     24264     24263     24265     24267     24264     24263     24265     24268
     24264     24263     24269     24270     24264     24263     24269     24271
     24264     24263     24269     24272     24265     24263     24269     24270
     24265     24263     24269     24271     24265     24263     24269     24272
     24266     24265     24263     24269     24267     24265     24263     24269
     24268     24265     24263     24269     24273     24277     24280     24281
     24273     24277     24280     24282     24273     24277     24280     24287
     24274     24273     24277     24278     24274     24273     24277     24279
     24274     24273     24277     24280     24275     24273     24277     24278
     24275     24273     24277     24279     24275     24273     24277     24280
     24276     24273     24277     24278     24276     24273     24277     24279
     24276     24273     24277     24280     24277     24280     24287     24283
     24278     24277     24280     24281     24278     24277     24280     24282
     24278     24277     24280     24287     24279     24277     24280     24281
     24279     24277     24280     24282     24279     24277     24280     24287
     24280     24287     24283     24284     24280     24287     24283     24285
     24280     24287     24283     24286     24281     24280     24287     24283
     24282     24280     24287     24283     24283     24286     24288     24289
     24283     24286     24288     24290     24283     24286     24288     24291
     24284     24283     24286     24288     24285     24283     24286     24288
     24286     24288     24291     24292     24286     24288     24291     24293
     24286     24288     24291     24299     24287     24283     24286     24288
     24288     24291     24293     24294     24288     24291     24299     24300
     24288     24291     24299     24301     24288     24291     24299     24302
     24289     24288     24291     24292     24289     24288     24291     24293
     24289     24288     24291     24299     24290     24288     24291     24292
     24290     24288     24291     24293     24290     24288     24291     24299
     24291     24293     24294     24295     24291     24293     24294     24296
     24291     24299     24302     24303     24292     24291     24293     24294
     24292     24291     24299     24300     24292     24291     24299     24301
     24292     24291     24299     24302     24293     24291     24299     24300
     24293     24291     24299     24301     24293     24291     24299     24302
     24293     24294     24296     24297     24293     24294     24296     24298
     24293     24294     24296     24308     24294     24293     24291     24299
     24294     24296     24308     24309     24294     24296     24308     24310
     24294     24296     24308     24311     24295     24294     24296     24297
     24295     24294     24296     24298     24295     24294     24296     24308
     24296     24308     24311     24312     24296     24308     24311     24313
     24296     24308     24311     24314     24297     24296     24308     24309
     24297     24296     24308     24310     24297     24296     24308     24311
     24298     24296     24308     24309     24298     24296     24308     24310
     24298     24296     24308     24311     24299     24302     24303     24304
     24299     24302     24303     24305     24300     24299     24302     24303
     24301     24299     24302     24303     24302     24303     24305     24306
     24302     24303     24305     24307     24302     24303     24305     24355
     24303     24305     24355     24356     24303     24305     24355     24357
     24303     24305     24355     24358     24304     24303     24305     24306
     24304     24303     24305     24307     24304     24303     24305     24355
     24305     24355     24358     24359     24305     24355     24358     24360
     24305     24355     24358     24361     24306     24305     24355     24356
     24306     24305     24355     24357     24306     24305     24355     24358
     24307     24305     24355     24356     24307     24305     24355     24357
     24307     24305     24355     24358     24308     24311     24314     24315
     24308     24311     24314     24316     24308     24311     24314     24317
     24309     24308     24311     24312     24309     24308     24311     24313
     24309     24308     24311     24314     24310     24308     24311     24312
     24310     24308     24311     24313     24310     24308     24311     24314
     24311     24314     24317     24318     24311     24314     24317     24319
     24311     24314     24317     24320     24312     24311     24314     24315
     24312     24311     24314     24316     24312     24311     24314     24317
     24313     24311     24314     24315     24313     24311     24314     24316
     24313     24311     24314     24317     24314     24317     24320     24321
     24314     24317     24320     24322     24314     24317     24320     24323
     24315     24314     24317     24318     24315     24314     24317     24319
     24315     24314     24317     24320     24316     24314     24317     24318
     24316     24314     24317     24319     24316     24314     24317     24320
     24317     24320     24323     24324     24317     24320     24323     24325
     24317     24320     24323     24326     24318     24317     24320     24321
     24318     24317     24320     24322     24318     24317     24320     24323
     24319     24317     24320     24321     24319     24317     24320     24322
     24319     24317     24320     24323     24320     24323     24326     24327
     24320     24323     24326     24328     24321     24320     24323     24324
     24321     24320     24323     24325     24321     24320     24323     24326
     24322     24320     24323     24324     24322     24320     24323     24325
     24322     24320     24323     24326     24323     24326     24328     24329
     24323     24326     24328     24330     24324     24323     24326     24327
     24324     24323     24326     24328     24325     24323     24326     24327
     24325     24323     24326     24328     24326     24328     24330     24331
     24326     24328     24330     24332     24326     24328     24330     24333
     24327     24326     24328     24329     24327     24326     24328     24330
     24328     24330     24333     24334     24328     24330     24333     24335
     24328     24330     24333     24336     24329     24328     24330     24331
     24329     24328     24330     24332     24329     24328     24330     24333
     24330     24333     24336     24337     24330     24333     24336     24338
     24330     24333     24336     24339     24331     24330     24333     24334
     24331     24330     24333     24335     24331     24330     24333     24336
     24332     24330     24333     24334     24332     24330     24333     24335
     24332     24330     24333     24336     24333     24336     24339     24340
     24333     24336     24339     24341     24333     24336     24339     24342
     24334     24333     24336     24337     24334     24333     24336     24338
     24334     24333     24336     24339     24335     24333     24336     24337
     24335     24333     24336     24338     24335     24333     24336     24339
     24336     24339     24342     24343     24336     24339     24342     24344
     24336     24339     24342     24345     24337     24336     24339     24340
     24337     24336     24339     24341     24337     24336     24339     24342
     24338     24336     24339     24340     24338     24336     24339     24341
     24338     24336     24339     24342     24339     24342     24345     24346
     24339     24342     24345     24347     24339     24342     24345     24348
     24340     24339     24342     24343     24340     24339     24342     24344
     24340     24339     24342     24345     24341     24339     24342     24343
     24341     24339     24342     24344     24341     24339     24342     24345
     24342     24345     24348     24349     24342     24345     24348     24350
     24342     24345     24348     24351     24343     24342     24345     24346
     24343     24342     24345     24347     24343     24342     24345     24348
     24344     24342     24345     24346     24344     24342     24345     24347
     24344     24342     24345     24348     24345     24348     24351     24352
     24345     24348     24351     24353     24345     24348     24351     24354
     24346     24345     24348     24349     24346     24345     24348     24350
     24346     24345     24348     24351     24347     24345     24348     24349
     24347     24345     24348     24350     24347     24345     24348     24351
     24349     24348     24351     24352     24349     24348     24351     24353
     24349     24348     24351     24354     24350     24348     24351     24352
     24350     24348     24351     24353     24350     24348     24351     24354
     24355     24358     24361     24362     24355     24358     24361     24363
     24355     24358     24361     24364     24356     24355     24358     24359
     24356     24355     24358     24360     24356     24355     24358     24361
     24357     24355     24358     24359     24357     24355     24358     24360
     24357     24355     24358     24361     24358     24361     24364     24365
     24358     24361     24364     24366     24358     24361     24364     24367
     24359     24358     24361     24362     24359     24358     24361     24363
     24359     24358     24361     24364     24360     24358     24361     24362
     24360     24358     24361     24363     24360     24358     24361     24364
     24361     24364     24367     24368     24361     24364     24367     24369
     24361     24364     24367     24370     24362     24361     24364     24365
     24362     24361     24364     24366     24362     24361     24364     24367
     24363     24361     24364     24365     24363     24361     24364     24366
     24363     24361     24364     24367     24364     24367     24370     24371
     24364     24367     24370     24372     24364     24367     24370     24373
     24365     24364     24367     24368     24365     24364     24367     24369
     24365     24364     24367     24370     24366     24364     24367     24368
     24366     24364     24367     24369     24366     24364     24367     24370
     24367     24370     24373     24374     24367     24370     24373     24375
     24368     24367     24370     24371     24368     24367     24370     24372
     24368     24367     24370     24373     24369     24367     24370     24371
     24369     24367     24370     24372     24369     24367     24370     24373
     24370     24373     24375     24376     24370     24373     24375     24377
     24371     24370     24373     24374     24371     24370     24373     24375
     24372     24370     24373     24374     24372     24370     24373     24375
     24373     24375     24377     24378     24373     24375     24377     24379
     24373     24375     24377     24380     24374     24373     24375     24376
     24374     24373     24375     24377     24375     24377     24380     24381
     24375     24377     24380     24382     24375     24377     24380     24383
     24376     24375     24377     24378     24376     24375     24377     24379
     24376     24375     24377     24380     24377     24380     24383     24384
     24377     24380     24383     24385     24377     24380     24383     24386
     24378     24377     24380     24381     24378     24377     24380     24382
     24378     24377     24380     24383     24379     24377     24380     24381
     24379     24377     24380     24382     24379     24377     24380     24383
     24380     24383     24386     24387     24380     24383     24386     24388
     24380     24383     24386     24389     24381     24380     24383     24384
     24381     24380     24383     24385     24381     24380     24383     24386
     24382     24380     24383     24384     24382     24380     24383     24385
     24382     24380     24383     24386     24383     24386     24389     24390
     24383     24386     24389     24391     24383     24386     24389     24392
     24384     24383     24386     24387     24384     24383     24386     24388
     24384     24383     24386     24389     24385     24383     24386     24387
     24385     24383     24386     24388     24385     24383     24386     24389
     24386     24389     24392     24393     24386     24389     24392     24394
     24386     24389     24392     24395     24387     24386     24389     24390
     24387     24386     24389     24391     24387     24386     24389     24392
     24388     24386     24389     24390     24388     24386     24389     24391
     24388     24386     24389     24392     24389     24392     24395     24396
     24389     24392     24395     24397     24389     24392     24395     24398
     24390     24389     24392     24393     24390     24389     24392     24394
     24390     24389     24392     24395     24391     24389     24392     24393
     24391     24389     24392     24394     24391     24389     24392     24395
     24392     24395     24398     24399     24392     24395     24398     24400
     24392     24395     24398     24401     24393     24392     24395     24396
     24393     24392     24395     24397     24393     24392     24395     24398
     24394     24392     24395     24396     24394     24392     24395     24397
     24394     24392     24395     24398     24396     24395     24398     24399
     24396     24395     24398     24400     24396     24395     24398     24401
     24397     24395     24398     24399     24397     24395     24398     24400
     24397     24395     24398     24401     24402     24415     24418     24419
     24402     24415     24418     24420     24402     24415     24418     24425
     24403     24402     24407     24408     24403     24402     24407     24409
     24403     24402     24407     24410     24403     24402     24411     24412
     24403     24402     24411     24413     24403     24402     24411     24414
     24403     24402     24415     24416     24403     24402     24415     24417
     24403     24402     24415     24418     24404     24403     24402     24407
     24404     24403     24402     24411     24404     24403     24402     24415
     24405     24403     24402     24407     24405     24403     24402     24411
     24405     24403     24402     24415     24406     24403     24402     24407
     24406     24403     24402     24411     24406     24403     24402     24415
     24407     24402     24411     24412     24407     24402     24411     24413
     24407     24402     24411     24414     24407     24402     24415     24416
     24407     24402     24415     24417     24407     24402     24415     24418
     24408     24407     24402     24411     24408     24407     24402     24415
     24409     24407     24402     24411     24409     24407     24402     24415
     24410     24407     24402     24411     24410     24407     24402     24415
     24411     24402     24415     24416     24411     24402     24415     24417
     24411     24402     24415     24418     24412     24411     24402     24415
     24413     24411     24402     24415     24414     24411     24402     24415
     24415     24418     24425     24421     24416     24415     24418     24419
     24416     24415     24418     24420     24416     24415     24418     24425
     24417     24415     24418     24419     24417     24415     24418     24420
     24417     24415     24418     24425     24418     24425     24421     24422
     24418     24425     24421     24423     24418     24425     24421     24424
     24419     24418     24425     24421     24420     24418     24425     24421
     24421     24424     24426     24427     24421     24424     24426     24428
     24421     24424     24426     24431     24422     24421     24424     24426
     24423     24421     24424     24426     24424     24426     24431     24429
     24424     24426     24431     24432     24424     24426     24431     24433
     24425     24421     24424     24426     24426     24431     24429     24430
     24426     24431     24429     24481     24426     24431     24433     24434
     24426     24431     24433     24435     24426     24431     24433     24437
     24427     24426     24431     24429     24427     24426     24431     24432
     24427     24426     24431     24433     24428     24426     24431     24429
     24428     24426     24431     24432     24428     24426     24431     24433
     24429     24431     24433     24434     24429     24431     24433     24435
     24429     24431     24433     24437     24429     24481     24483     24484
     24429     24481     24483     24485     24429     24481     24483     24486
     24430     24429     24431     24432     24430     24429     24431     24433
     24430     24429     24481     24482     24430     24429     24481     24483
     24431     24429     24481     24482     24431     24429     24481     24483
     24431     24433     24435     24436     24431     24433     24437     24438
     24431     24433     24437     24439     24432     24431     24429     24481
     24432     24431     24433     24434     24432     24431     24433     24435
     24432     24431     24433     24437     24433     24431     24429     24481
     24433     24437     24439     24440     24433     24437     24439     24441
     24434     24433     24435     24436     24434     24433     24437     24438
     24434     24433     24437     24439     24435     24433     24437     24438
     24435     24433     24437     24439     24436     24435     24433     24437
     24437     24439     24441     24442     24437     24439     24441     24443
     24437     24439     24441     24444     24438     24437     24439     24440
     24438     24437     24439     24441     24439     24441     24444     24445
     24439     24441     24444     24446     24439     24441     24444     24447
     24440     24439     24441     24442     24440     24439     24441     24443
     24440     24439     24441     24444     24441     24444     24447     24448
     24441     24444     24447     24449     24441     24444     24447     24450
     24442     24441     24444     24445     24442     24441     24444     24446
     24442     24441     24444     24447     24443     24441     24444     24445
     24443     24441     24444     24446     24443     24441     24444     24447
     24444     24447     24450     24451     24444     24447     24450     24452
     24444     24447     24450     24453     24445     24444     24447     24448
     24445     24444     24447     24449     24445     24444     24447     24450
     24446     24444     24447     24448     24446     24444     24447     24449
     24446     24444     24447     24450     24447     24450     24453     24454
     24447     24450     24453     24455     24447     24450     24453     24456
     24448     24447     24450     24451     24448     24447     24450     24452
     24448     24447     24450     24453     24449     24447     24450     24451
     24449     24447     24450     24452     24449     24447     24450     24453
     24450     24453     24456     24457     24450     24453     24456     24458
     24450     24453     24456     24459     24451     24450     24453     24454
     24451     24450     24453     24455     24451     24450     24453     24456
     24452     24450     24453     24454     24452     24450     24453     24455
     24452     24450     24453     24456     24453     24456     24459     24460
     24453     24456     24459     24461     24453     24456     24459     24462
     24454     24453     24456     24457     24454     24453     24456     24458
     24454     24453     24456     24459     24455     24453     24456     24457
     24455     24453     24456     24458     24455     24453     24456     24459
     24456     24459     24462     24463     24456     24459     24462     24464
     24456     24459     24462     24465     24457     24456     24459     24460
     24457     24456     24459     24461     24457     24456     24459     24462
     24458     24456     24459     24460     24458     24456     24459     24461
     24458     24456     24459     24462     24459     24462     24465     24466
     24459     24462     24465     24467     24459     24462     24465     24468
     24460     24459     24462     24463     24460     24459     24462     24464
     24460     24459     24462     24465     24461     24459     24462     24463
     24461     24459     24462     24464     24461     24459     24462     24465
     24462     24465     24468     24469     24462     24465     24468     24470
     24462     24465     24468     24471     24463     24462     24465     24466
     24463     24462     24465     24467     24463     24462     24465     24468
     24464     24462     24465     24466     24464     24462     24465     24467
     24464     24462     24465     24468     24465     24468     24471     24472
     24465     24468     24471     24473     24465     24468     24471     24474
     24466     24465     24468     24469     24466     24465     24468     24470
     24466     24465     24468     24471     24467     24465     24468     24469
     24467     24465     24468     24470     24467     24465     24468     24471
     24468     24471     24474     24475     24468     24471     24474     24476
     24468     24471     24474     24477     24469     24468     24471     24472
     24469     24468     24471     24473     24469     24468     24471     24474
     24470     24468     24471     24472     24470     24468     24471     24473
     24470     24468     24471     24474     24471     24474     24477     24478
     24471     24474     24477     24479     24471     24474     24477     24480
     24472     24471     24474     24475     24472     24471     24474     24476
     24472     24471     24474     24477     24473     24471     24474     24475
     24473     24471     24474     24476     24473     24471     24474     24477
     24475     24474     24477     24478     24475     24474     24477     24479
     24475     24474     24477     24480     24476     24474     24477     24478
     24476     24474     24477     24479     24476     24474     24477     24480
     24481     24483     24486     24487     24481     24483     24486     24488
     24481     24483     24486     24489     24482     24481     24483     24484
     24482     24481     24483     24485     24482     24481     24483     24486
     24483     24486     24489     24490     24483     24486     24489     24491
     24483     24486     24489     24492     24484     24483     24486     24487
     24484     24483     24486     24488     24484     24483     24486     24489
     24485     24483     24486     24487     24485     24483     24486     24488
     24485     24483     24486     24489     24486     24489     24492     24493
     24486     24489     24492     24494     24486     24489     24492     24495
     24487     24486     24489     24490     24487     24486     24489     24491
     24487     24486     24489     24492     24488     24486     24489     24490
     24488     24486     24489     24491     24488     24486     24489     24492
     24489     24492     24495     24496     24489     24492     24495     24497
     24489     24492     24495     24498     24490     24489     24492     24493
     24490     24489     24492     24494     24490     24489     24492     24495
     24491     24489     24492     24493     24491     24489     24492     24494
     24491     24489     24492     24495     24492     24495     24498     24499
     24492     24495     24498     24500     24492     24495     24498     24501
     24493     24492     24495     24496     24493     24492     24495     24497
     24493     24492     24495     24498     24494     24492     24495     24496
     24494     24492     24495     24497     24494     24492     24495     24498
     24495     24498     24501     24502     24495     24498     24501     24503
     24495     24498     24501     24504     24496     24495     24498     24499
     24496     24495     24498     24500     24496     24495     24498     24501
     24497     24495     24498     24499     24497     24495     24498     24500
     24497     24495     24498     24501     24498     24501     24504     24505
     24498     24501     24504     24506     24498     24501     24504     24507
     24499     24498     24501     24502     24499     24498     24501     24503
     24499     24498     24501     24504     24500     24498     24501     24502
     24500     24498     24501     24503     24500     24498     24501     24504
     24501     24504     24507     24508     24501     24504     24507     24509
     24501     24504     24507     24510     24502     24501     24504     24505
     24502     24501     24504     24506     24502     24501     24504     24507
     24503     24501     24504     24505     24503     24501     24504     24506
     24503     24501     24504     24507     24504     24507     24510     24511
     24504     24507     24510     24512     24504     24507     24510     24513
     24505     24504     24507     24508     24505     24504     24507     24509
     24505     24504     24507     24510     24506     24504     24507     24508
     24506     24504     24507     24509     24506     24504     24507     24510
     24507     24510     24513     24514     24507     24510     24513     24515
     24507     24510     24513     24516     24508     24507     24510     24511
     24508     24507     24510     24512     24508     24507     24510     24513
     24509     24507     24510     24511     24509     24507     24510     24512
     24509     24507     24510     24513     24510     24513     24516     24517
     24510     24513     24516     24518     24510     24513     24516     24519
     24511     24510     24513     24514     24511     24510     24513     24515
     24511     24510     24513     24516     24512     24510     24513     24514
     24512     24510     24513     24515     24512     24510     24513     24516
     24513     24516     24519     24520     24513     24516     24519     24521
     24513     24516     24519     24522     24514     24513     24516     24517
     24514     24513     24516     24518     24514     24513     24516     24519
     24515     24513     24516     24517     24515     24513     24516     24518
     24515     24513     24516     24519     24516     24519     24522     24523
     24516     24519     24522     24524     24516     24519     24522     24525
     24517     24516     24519     24520     24517     24516     24519     24521
     24517     24516     24519     24522     24518     24516     24519     24520
     24518     24516     24519     24521     24518     24516     24519     24522
     24519     24522     24525     24526     24519     24522     24525     24527
     24519     24522     24525     24528     24520     24519     24522     24523
     24520     24519     24522     24524     24520     24519     24522     24525
     24521     24519     24522     24523     24521     24519     24522     24524
     24521     24519     24522     24525     24522     24525     24528     24529
     24522     24525     24528     24530     24522     24525     24528     24531
     24523     24522     24525     24526     24523     24522     24525     24527
     24523     24522     24525     24528     24524     24522     24525     24526
     24524     24522     24525     24527     24524     24522     24525     24528
     24525     24528     24531     24532     24525     24528     24531     24533
     24525     24528     24531     24534     24526     24525     24528     24529
     24526     24525     24528     24530     24526     24525     24528     24531
     24527     24525     24528     24529     24527     24525     24528     24530
     24527     24525     24528     24531     24528     24531     24534     24535
     24528     24531     24534     24536     24528     24531     24534     24537
     24529     24528     24531     24532     24529     24528     24531     24533
     24529     24528     24531     24534     24530     24528     24531     24532
     24530     24528     24531     24533     24530     24528     24531     24534
     24531     24534     24537     24538     24531     24534     24537     24539
     24531     24534     24537     24540     24532     24531     24534     24535
     24532     24531     24534     24536     24532     24531     24534     24537
     24533     24531     24534     24535     24533     24531     24534     24536
     24533     24531     24534     24537     24534     24537     24540     24541
     24534     24537     24540     24542     24534     24537     24540     24543
     24535     24534     24537     24538     24535     24534     24537     24539
     24535     24534     24537     24540     24536     24534     24537     24538
     24536     24534     24537     24539     24536     24534     24537     24540
     24537     24540     24543     24544     24537     24540     24543     24545
     24537     24540     24543     24546     24538     24537     24540     24541
     24538     24537     24540     24542     24538     24537     24540     24543
     24539     24537     24540     24541     24539     24537     24540     24542
     24539     24537     24540     24543     24540     24543     24546     24547
     24540     24543     24546     24548     24540     24543     24546     24549
     24541     24540     24543     24544     24541     24540     24543     24545
     24541     24540     24543     24546     24542     24540     24543     24544
     24542     24540     24543     24545     24542     24540     24543     24546
     24544     24543     24546     24547     24544     24543     24546     24548
     24544     24543     24546     24549     24545     24543     24546     24547
     24545     24543     24546     24548     24545     24543     24546     24549
     24550     24554     24557     24558     24550     24554     24557     24588
     24550     24596     24593     24588     24550     24596     24593     24594
     24550     24596     24593     24595     24551     24550     24552     24553
     24551     24550     24554     24555     24551     24550     24554     24556
     24551     24550     24554     24557     24551     24550     24596     24593
     24551     24550     24596     24597     24551     24550     24596     24598
     24552     24550     24554     24555     24552     24550     24554     24556
     24552     24550     24554     24557     24552     24550     24596     24593
     24552     24550     24596     24597     24552     24550     24596     24598
     24553     24552     24550     24554     24553     24552     24550     24596
     24554     24550     24596     24593     24554     24550     24596     24597
     24554     24550     24596     24598     24554     24557     24558     24559
     24554     24557     24558     24560     24554     24557     24588     24586
     24554     24557     24588     24589     24554     24557     24588     24593
     24555     24554     24550     24596     24555     24554     24557     24558
     24555     24554     24557     24588     24556     24554     24550     24596
     24556     24554     24557     24558     24556     24554     24557     24588
     24557     24554     24550     24596     24557     24558     24560     24561
     24557     24558     24560     24562     24557     24558     24560     24563
     24557     24588     24586     24563     24557     24588     24586     24583
     24557     24588     24586     24587     24557     24588     24589     24590
     24557     24588     24589     24591     24557     24588     24589     24592
     24557     24588     24593     24594     24557     24588     24593     24595
     24557     24588     24593     24596     24558     24557     24588     24586
     24558     24557     24588     24589     24558     24557     24588     24593
     24558     24560     24563     24564     24558     24560     24563     24565
     24558     24560     24563     24586     24559     24558     24557     24588
     24559     24558     24560     24561     24559     24558     24560     24562
     24559     24558     24560     24563     24560     24558     24557     24588
     24560     24563     24565     24566     24560     24563     24565     24567
     24560     24563     24565     24575     24560     24563     24586     24583
     24560     24563     24586     24587     24560     24563     24586     24588
     24561     24560     24563     24564     24561     24560     24563     24565
     24561     24560     24563     24586     24562     24560     24563     24564
     24562     24560     24563     24565     24562     24560     24563     24586
     24563     24565     24567     24568     24563     24565     24567     24569
     24563     24565     24567     24570     24563     24565     24575     24573
     24563     24565     24575     24576     24563     24565     24575     24580
     24563     24586     24583     24580     24563     24586     24583     24584
     24563     24586     24583     24585     24563     24586     24588     24589
     24563     24586     24588     24593     24564     24563     24565     24566
     24564     24563     24565     24567     24564     24563     24565     24575
     24564     24563     24586     24583     24564     24563     24586     24587
     24564     24563     24586     24588     24565     24563     24586     24583
     24565     24563     24586     24587     24565     24563     24586     24588
     24565     24567     24570     24571     24565     24567     24570     24572
     24565     24567     24570     24573     24565     24575     24573     24570
     24565     24575     24573     24574     24565     24575     24573     24599
     24565     24575     24576     24577     24565     24575     24576     24578
     24565     24575     24576     24579     24565     24575     24580     24581
     24565     24575     24580     24582     24565     24575     24580     24583
     24566     24565     24563     24586     24566     24565     24567     24568
     24566     24565     24567     24569     24566     24565     24567     24570
     24566     24565     24575     24573     24566     24565     24575     24576
     24566     24565     24575     24580     24567     24565     24563     24586
     24567     24565     24575     24573     24567     24565     24575     24576
     24567     24565     24575     24580     24567     24570     24573     24574
     24567     24570     24573     24575     24567     24570     24573     24599
     24568     24567     24565     24575     24568     24567     24570     24571
     24568     24567     24570     24572     24568     24567     24570     24573
     24569     24567     24565     24575     24569     24567     24570     24571
     24569     24567     24570     24572     24569     24567     24570     24573
     24570     24567     24565     24575     24570     24573     24575     24576
     24570     24573     24575     24580     24570     24573     24599     24600
     24570     24573     24599     24601     24570     24573     24599     24605
     24571     24570     24573     24574     24571     24570     24573     24575
     24571     24570     24573     24599     24572     24570     24573     24574
     24572     24570     24573     24575     24572     24570     24573     24599
     24573     24575     24576     24577     24573     24575     24576     24578
     24573     24575     24576     24579     24573     24575     24580     24581
     24573     24575     24580     24582     24573     24575     24580     24583
     24573     24599     24601     24602     24573     24599     24601     24603
     24573     24599     24601     24604     24573     24599     24605     24606
     24573     24599     24605     24607     24573     24599     24605     24608
     24574     24573     24575     24576     24574     24573     24575     24580
     24574     24573     24599     24600     24574     24573     24599     24601
     24574     24573     24599     24605     24575     24565     24563     24586
     24575     24573     24599     24600     24575     24573     24599     24601
     24575     24573     24599     24605     24575     24580     24583     24584
     24575     24580     24583     24585     24575     24580     24583     24586
     24576     24575     24573     24599     24576     24575     24580     24581
     24576     24575     24580     24582     24576     24575     24580     24583
     24577     24576     24575     24580     24578     24576     24575     24580
     24579     24576     24575     24580     24580     24575     24573     24599
     24580     24583     24586     24587     24580     24583     24586     24588
     24581     24580     24583     24584     24581     24580     24583     24585
     24581     24580     24583     24586     24582     24580     24583     24584
     24582     24580     24583     24585     24582     24580     24583     24586
     24583     24586     24588     24589     24583     24586     24588     24593
     24584     24583     24586     24587     24584     24583     24586     24588
     24585     24583     24586     24587     24585     24583     24586     24588
     24586     24588     24589     24590     24586     24588     24589     24591
     24586     24588     24589     24592     24586     24588     24593     24594
     24586     24588     24593     24595     24586     24588     24593     24596
     24587     24586     24588     24589     24587     24586     24588     24593
     24588     24593     24596     24597     24588     24593     24596     24598
     24589     24588     24593     24594     24589     24588     24593     24595
     24589     24588     24593     24596     24590     24589     24588     24593
     24591     24589     24588     24593     24592     24589     24588     24593
     24594     24593     24596     24597     24594     24593     24596     24598
     24595     24593     24596     24597     24595     24593     24596     24598
     24599     24605     24608     24609     24599     24605     24608     24610
     24599     24605     24608     24611     24600     24599     24601     24602
     24600     24599     24601     24603     24600     24599     24601     24604
     24600     24599     24605     24606     24600     24599     24605     24607
     24600     24599     24605     24608     24601     24599     24605     24606
     24601     24599     24605     24607     24601     24599     24605     24608
     24602     24601     24599     24605     24603     24601     24599     24605
     24604     24601     24599     24605     24605     24608     24611     24612
     24605     24608     24611     24613     24605     24608     24611     24614
     24606     24605     24608     24609     24606     24605     24608     24610
     24606     24605     24608     24611     24607     24605     24608     24609
     24607     24605     24608     24610     24607     24605     24608     24611
     24608     24611     24614     24615     24608     24611     24614     24616
     24608     24611     24614     24620     24609     24608     24611     24612
     24609     24608     24611     24613     24609     24608     24611     24614
     24610     24608     24611     24612     24610     24608     24611     24613
     24610     24608     24611     24614     24611     24614     24616     24617
     24611     24614     24616     24618     24611     24614     24616     24619
     24611     24614     24620     24621     24611     24614     24620     24622
     24611     24614     24620     24623     24612     24611     24614     24615
     24612     24611     24614     24616     24612     24611     24614     24620
     24613     24611     24614     24615     24613     24611     24614     24616
     24613     24611     24614     24620     24615     24614     24616     24617
     24615     24614     24616     24618     24615     24614     24616     24619
     24615     24614     24620     24621     24615     24614     24620     24622
     24615     24614     24620     24623     24616     24614     24620     24621
     24616     24614     24620     24622     24616     24614     24620     24623
     24617     24616     24614     24620     24618     24616     24614     24620
     24619     24616     24614     24620     24624     24637     24640     24641
     24624     24637     24640     24642     24624     24637     24640     24647
     24625     24624     24629     24630     24625     24624     24629     24631
     24625     24624     24629     24632     24625     24624     24633     24634
     24625     24624     24633     24635     24625     24624     24633     24636
     24625     24624     24637     24638     24625     24624     24637     24639
     24625     24624     24637     24640     24626     24625     24624     24629
     24626     24625     24624     24633     24626     24625     24624     24637
     24627     24625     24624     24629     24627     24625     24624     24633
     24627     24625     24624     24637     24628     24625     24624     24629
     24628     24625     24624     24633     24628     24625     24624     24637
     24629     24624     24633     24634     24629     24624     24633     24635
     24629     24624     24633     24636     24629     24624     24637     24638
     24629     24624     24637     24639     24629     24624     24637     24640
     24630     24629     24624     24633     24630     24629     24624     24637
     24631     24629     24624     24633     24631     24629     24624     24637
     24632     24629     24624     24633     24632     24629     24624     24637
     24633     24624     24637     24638     24633     24624     24637     24639
     24633     24624     24637     24640     24634     24633     24624     24637
     24635     24633     24624     24637     24636     24633     24624     24637
     24637     24640     24647     24643     24638     24637     24640     24641
     24638     24637     24640     24642     24638     24637     24640     24647
     24639     24637     24640     24641     24639     24637     24640     24642
     24639     24637     24640     24647     24640     24647     24643     24644
     24640     24647     24643     24645     24640     24647     24643     24646
     24641     24640     24647     24643     24642     24640     24647     24643
     24643     24646     24648     24649     24643     24646     24648     24650
     24643     24646     24648     24653     24644     24643     24646     24648
     24645     24643     24646     24648     24646     24648     24653     24651
     24646     24648     24653     24654     24646     24648     24653     24655
     24647     24643     24646     24648     24648     24653     24651     24652
     24648     24653     24651     24703     24648     24653     24655     24656
     24648     24653     24655     24657     24648     24653     24655     24659
     24649     24648     24653     24651     24649     24648     24653     24654
     24649     24648     24653     24655     24650     24648     24653     24651
     24650     24648     24653     24654     24650     24648     24653     24655
     24651     24653     24655     24656     24651     24653     24655     24657
     24651     24653     24655     24659     24651     24703     24705     24706
     24651     24703     24705     24707     24651     24703     24705     24708
     24652     24651     24653     24654     24652     24651     24653     24655
     24652     24651     24703     24704     24652     24651     24703     24705
     24653     24651     24703     24704     24653     24651     24703     24705
     24653     24655     24657     24658     24653     24655     24659     24660
     24653     24655     24659     24661     24654     24653     24651     24703
     24654     24653     24655     24656     24654     24653     24655     24657
     24654     24653     24655     24659     24655     24653     24651     24703
     24655     24659     24661     24662     24655     24659     24661     24663
     24656     24655     24657     24658     24656     24655     24659     24660
     24656     24655     24659     24661     24657     24655     24659     24660
     24657     24655     24659     24661     24658     24657     24655     24659
     24659     24661     24663     24664     24659     24661     24663     24665
     24659     24661     24663     24666     24660     24659     24661     24662
     24660     24659     24661     24663     24661     24663     24666     24667
     24661     24663     24666     24668     24661     24663     24666     24669
     24662     24661     24663     24664     24662     24661     24663     24665
     24662     24661     24663     24666     24663     24666     24669     24670
     24663     24666     24669     24671     24663     24666     24669     24672
     24664     24663     24666     24667     24664     24663     24666     24668
     24664     24663     24666     24669     24665     24663     24666     24667
     24665     24663     24666     24668     24665     24663     24666     24669
     24666     24669     24672     24673     24666     24669     24672     24674
     24666     24669     24672     24675     24667     24666     24669     24670
     24667     24666     24669     24671     24667     24666     24669     24672
     24668     24666     24669     24670     24668     24666     24669     24671
     24668     24666     24669     24672     24669     24672     24675     24676
     24669     24672     24675     24677     24669     24672     24675     24678
     24670     24669     24672     24673     24670     24669     24672     24674
     24670     24669     24672     24675     24671     24669     24672     24673
     24671     24669     24672     24674     24671     24669     24672     24675
     24672     24675     24678     24679     24672     24675     24678     24680
     24672     24675     24678     24681     24673     24672     24675     24676
     24673     24672     24675     24677     24673     24672     24675     24678
     24674     24672     24675     24676     24674     24672     24675     24677
     24674     24672     24675     24678     24675     24678     24681     24682
     24675     24678     24681     24683     24675     24678     24681     24684
     24676     24675     24678     24679     24676     24675     24678     24680
     24676     24675     24678     24681     24677     24675     24678     24679
     24677     24675     24678     24680     24677     24675     24678     24681
     24678     24681     24684     24685     24678     24681     24684     24686
     24678     24681     24684     24687     24679     24678     24681     24682
     24679     24678     24681     24683     24679     24678     24681     24684
     24680     24678     24681     24682     24680     24678     24681     24683
     24680     24678     24681     24684     24681     24684     24687     24688
     24681     24684     24687     24689     24681     24684     24687     24690
     24682     24681     24684     24685     24682     24681     24684     24686
     24682     24681     24684     24687     24683     24681     24684     24685
     24683     24681     24684     24686     24683     24681     24684     24687
     24684     24687     24690     24691     24684     24687     24690     24692
     24684     24687     24690     24693     24685     24684     24687     24688
     24685     24684     24687     24689     24685     24684     24687     24690
     24686     24684     24687     24688     24686     24684     24687     24689
     24686     24684     24687     24690     24687     24690     24693     24694
     24687     24690     24693     24695     24687     24690     24693     24696
     24688     24687     24690     24691     24688     24687     24690     24692
     24688     24687     24690     24693     24689     24687     24690     24691
     24689     24687     24690     24692     24689     24687     24690     24693
     24690     24693     24696     24697     24690     24693     24696     24698
     24690     24693     24696     24699     24691     24690     24693     24694
     24691     24690     24693     24695     24691     24690     24693     24696
     24692     24690     24693     24694     24692     24690     24693     24695
     24692     24690     24693     24696     24693     24696     24699     24700
     24693     24696     24699     24701     24693     24696     24699     24702
     24694     24693     24696     24697     24694     24693     24696     24698
     24694     24693     24696     24699     24695     24693     24696     24697
     24695     24693     24696     24698     24695     24693     24696     24699
     24697     24696     24699     24700     24697     24696     24699     24701
     24697     24696     24699     24702     24698     24696     24699     24700
     24698     24696     24699     24701     24698     24696     24699     24702
     24703     24705     24708     24709     24703     24705     24708     24710
     24703     24705     24708     24711     24704     24703     24705     24706
     24704     24703     24705     24707     24704     24703     24705     24708
     24705     24708     24711     24712     24705     24708     24711     24713
     24705     24708     24711     24714     24706     24705     24708     24709
     24706     24705     24708     24710     24706     24705     24708     24711
     24707     24705     24708     24709     24707     24705     24708     24710
     24707     24705     24708     24711     24708     24711     24714     24715
     24708     24711     24714     24716     24708     24711     24714     24717
     24709     24708     24711     24712     24709     24708     24711     24713
     24709     24708     24711     24714     24710     24708     24711     24712
     24710     24708     24711     24713     24710     24708     24711     24714
     24711     24714     24717     24718     24711     24714     24717     24719
     24711     24714     24717     24720     24712     24711     24714     24715
     24712     24711     24714     24716     24712     24711     24714     24717
     24713     24711     24714     24715     24713     24711     24714     24716
     24713     24711     24714     24717     24714     24717     24720     24721
     24714     24717     24720     24722     24714     24717     24720     24723
     24715     24714     24717     24718     24715     24714     24717     24719
     24715     24714     24717     24720     24716     24714     24717     24718
     24716     24714     24717     24719     24716     24714     24717     24720
     24717     24720     24723     24724     24717     24720     24723     24725
     24717     24720     24723     24726     24718     24717     24720     24721
     24718     24717     24720     24722     24718     24717     24720     24723
     24719     24717     24720     24721     24719     24717     24720     24722
     24719     24717     24720     24723     24720     24723     24726     24727
     24720     24723     24726     24728     24720     24723     24726     24729
     24721     24720     24723     24724     24721     24720     24723     24725
     24721     24720     24723     24726     24722     24720     24723     24724
     24722     24720     24723     24725     24722     24720     24723     24726
     24723     24726     24729     24730     24723     24726     24729     24731
     24723     24726     24729     24732     24724     24723     24726     24727
     24724     24723     24726     24728     24724     24723     24726     24729
     24725     24723     24726     24727     24725     24723     24726     24728
     24725     24723     24726     24729     24726     24729     24732     24733
     24726     24729     24732     24734     24726     24729     24732     24735
     24727     24726     24729     24730     24727     24726     24729     24731
     24727     24726     24729     24732     24728     24726     24729     24730
     24728     24726     24729     24731     24728     24726     24729     24732
     24729     24732     24735     24736     24729     24732     24735     24737
     24729     24732     24735     24738     24730     24729     24732     24733
     24730     24729     24732     24734     24730     24729     24732     24735
     24731     24729     24732     24733     24731     24729     24732     24734
     24731     24729     24732     24735     24732     24735     24738     24739
     24732     24735     24738     24740     24732     24735     24738     24741
     24733     24732     24735     24736     24733     24732     24735     24737
     24733     24732     24735     24738     24734     24732     24735     24736
     24734     24732     24735     24737     24734     24732     24735     24738
     24735     24738     24741     24742     24735     24738     24741     24743
     24735     24738     24741     24744     24736     24735     24738     24739
     24736     24735     24738     24740     24736     24735     24738     24741
     24737     24735     24738     24739     24737     24735     24738     24740
     24737     24735     24738     24741     24738     24741     24744     24745
     24738     24741     24744     24746     24738     24741     24744     24747
     24739     24738     24741     24742     24739     24738     24741     24743
     24739     24738     24741     24744     24740     24738     24741     24742
     24740     24738     24741     24743     24740     24738     24741     24744
     24741     24744     24747     24748     24741     24744     24747     24749
     24741     24744     24747     24750     24742     24741     24744     24745
     24742     24741     24744     24746     24742     24741     24744     24747
     24743     24741     24744     24745     24743     24741     24744     24746
     24743     24741     24744     24747     24744     24747     24750     24751
     24744     24747     24750     24752     24744     24747     24750     24753
     24745     24744     24747     24748     24745     24744     24747     24749
     24745     24744     24747     24750     24746     24744     24747     24748
     24746     24744     24747     24749     24746     24744     24747     24750
     24747     24750     24753     24754     24747     24750     24753     24755
     24747     24750     24753     24756     24748     24747     24750     24751
     24748     24747     24750     24752     24748     24747     24750     24753
     24749     24747     24750     24751     24749     24747     24750     24752
     24749     24747     24750     24753     24750     24753     24756     24757
     24750     24753     24756     24758     24750     24753     24756     24759
     24751     24750     24753     24754     24751     24750     24753     24755
     24751     24750     24753     24756     24752     24750     24753     24754
     24752     24750     24753     24755     24752     24750     24753     24756
     24753     24756     24759     24760     24753     24756     24759     24761
     24753     24756     24759     24762     24754     24753     24756     24757
     24754     24753     24756     24758     24754     24753     24756     24759
     24755     24753     24756     24757     24755     24753     24756     24758
     24755     24753     24756     24759     24756     24759     24762     24763
     24756     24759     24762     24764     24756     24759     24762     24765
     24757     24756     24759     24760     24757     24756     24759     24761
     24757     24756     24759     24762     24758     24756     24759     24760
     24758     24756     24759     24761     24758     24756     24759     24762
     24759     24762     24765     24766     24759     24762     24765     24767
     24759     24762     24765     24768     24760     24759     24762     24763
     24760     24759     24762     24764     24760     24759     24762     24765
     24761     24759     24762     24763     24761     24759     24762     24764
     24761     24759     24762     24765     24762     24765     24768     24769
     24762     24765     24768     24770     24762     24765     24768     24771
     24763     24762     24765     24766     24763     24762     24765     24767
     24763     24762     24765     24768     24764     24762     24765     24766
     24764     24762     24765     24767     24764     24762     24765     24768
     24766     24765     24768     24769     24766     24765     24768     24770
     24766     24765     24768     24771     24767     24765     24768     24769
     24767     24765     24768     24770     24767     24765     24768     24771
     24772     24776     24779     24780     24772     24776     24779     24781
     24772     24776     24779     24786     24773     24772     24776     24777
     24773     24772     24776     24778     24773     24772     24776     24779
     24774     24772     24776     24777     24774     24772     24776     24778
     24774     24772     24776     24779     24775     24772     24776     24777
     24775     24772     24776     24778     24775     24772     24776     24779
     24776     24779     24786     24782     24777     24776     24779     24780
     24777     24776     24779     24781     24777     24776     24779     24786
     24778     24776     24779     24780     24778     24776     24779     24781
     24778     24776     24779     24786     24779     24786     24782     24783
     24779     24786     24782     24784     24779     24786     24782     24785
     24780     24779     24786     24782     24781     24779     24786     24782
     24782     24785     24787     24788     24782     24785     24787     24789
     24782     24785     24787     24790     24783     24782     24785     24787
     24784     24782     24785     24787     24785     24787     24790     24791
     24785     24787     24790     24792     24785     24787     24790     24798
     24786     24782     24785     24787     24787     24790     24792     24793
     24787     24790     24798     24799     24787     24790     24798     24800
     24787     24790     24798     24801     24788     24787     24790     24791
     24788     24787     24790     24792     24788     24787     24790     24798
     24789     24787     24790     24791     24789     24787     24790     24792
     24789     24787     24790     24798     24790     24792     24793     24794
     24790     24792     24793     24795     24790     24798     24801     24802
     24791     24790     24792     24793     24791     24790     24798     24799
     24791     24790     24798     24800     24791     24790     24798     24801
     24792     24790     24798     24799     24792     24790     24798     24800
     24792     24790     24798     24801     24792     24793     24795     24796
     24792     24793     24795     24797     24792     24793     24795     24807
     24793     24792     24790     24798     24793     24795     24807     24808
     24793     24795     24807     24809     24793     24795     24807     24810
     24794     24793     24795     24796     24794     24793     24795     24797
     24794     24793     24795     24807     24795     24807     24810     24811
     24795     24807     24810     24812     24795     24807     24810     24813
     24796     24795     24807     24808     24796     24795     24807     24809
     24796     24795     24807     24810     24797     24795     24807     24808
     24797     24795     24807     24809     24797     24795     24807     24810
     24798     24801     24802     24803     24798     24801     24802     24804
     24799     24798     24801     24802     24800     24798     24801     24802
     24801     24802     24804     24805     24801     24802     24804     24806
     24801     24802     24804     24854     24802     24804     24854     24855
     24802     24804     24854     24856     24802     24804     24854     24857
     24803     24802     24804     24805     24803     24802     24804     24806
     24803     24802     24804     24854     24804     24854     24857     24858
     24804     24854     24857     24859     24804     24854     24857     24860
     24805     24804     24854     24855     24805     24804     24854     24856
     24805     24804     24854     24857     24806     24804     24854     24855
     24806     24804     24854     24856     24806     24804     24854     24857
     24807     24810     24813     24814     24807     24810     24813     24815
     24807     24810     24813     24816     24808     24807     24810     24811
     24808     24807     24810     24812     24808     24807     24810     24813
     24809     24807     24810     24811     24809     24807     24810     24812
     24809     24807     24810     24813     24810     24813     24816     24817
     24810     24813     24816     24818     24810     24813     24816     24819
     24811     24810     24813     24814     24811     24810     24813     24815
     24811     24810     24813     24816     24812     24810     24813     24814
     24812     24810     24813     24815     24812     24810     24813     24816
     24813     24816     24819     24820     24813     24816     24819     24821
     24813     24816     24819     24822     24814     24813     24816     24817
     24814     24813     24816     24818     24814     24813     24816     24819
     24815     24813     24816     24817     24815     24813     24816     24818
     24815     24813     24816     24819     24816     24819     24822     24823
     24816     24819     24822     24824     24816     24819     24822     24825
     24817     24816     24819     24820     24817     24816     24819     24821
     24817     24816     24819     24822     24818     24816     24819     24820
     24818     24816     24819     24821     24818     24816     24819     24822
     24819     24822     24825     24826     24819     24822     24825     24827
     24820     24819     24822     24823     24820     24819     24822     24824
     24820     24819     24822     24825     24821     24819     24822     24823
     24821     24819     24822     24824     24821     24819     24822     24825
     24822     24825     24827     24828     24822     24825     24827     24829
     24823     24822     24825     24826     24823     24822     24825     24827
     24824     24822     24825     24826     24824     24822     24825     24827
     24825     24827     24829     24830     24825     24827     24829     24831
     24825     24827     24829     24832     24826     24825     24827     24828
     24826     24825     24827     24829     24827     24829     24832     24833
     24827     24829     24832     24834     24827     24829     24832     24835
     24828     24827     24829     24830     24828     24827     24829     24831
     24828     24827     24829     24832     24829     24832     24835     24836
     24829     24832     24835     24837     24829     24832     24835     24838
     24830     24829     24832     24833     24830     24829     24832     24834
     24830     24829     24832     24835     24831     24829     24832     24833
     24831     24829     24832     24834     24831     24829     24832     24835
     24832     24835     24838     24839     24832     24835     24838     24840
     24832     24835     24838     24841     24833     24832     24835     24836
     24833     24832     24835     24837     24833     24832     24835     24838
     24834     24832     24835     24836     24834     24832     24835     24837
     24834     24832     24835     24838     24835     24838     24841     24842
     24835     24838     24841     24843     24835     24838     24841     24844
     24836     24835     24838     24839     24836     24835     24838     24840
     24836     24835     24838     24841     24837     24835     24838     24839
     24837     24835     24838     24840     24837     24835     24838     24841
     24838     24841     24844     24845     24838     24841     24844     24846
     24838     24841     24844     24847     24839     24838     24841     24842
     24839     24838     24841     24843     24839     24838     24841     24844
     24840     24838     24841     24842     24840     24838     24841     24843
     24840     24838     24841     24844     24841     24844     24847     24848
     24841     24844     24847     24849     24841     24844     24847     24850
     24842     24841     24844     24845     24842     24841     24844     24846
     24842     24841     24844     24847     24843     24841     24844     24845
     24843     24841     24844     24846     24843     24841     24844     24847
     24844     24847     24850     24851     24844     24847     24850     24852
     24844     24847     24850     24853     24845     24844     24847     24848
     24845     24844     24847     24849     24845     24844     24847     24850
     24846     24844     24847     24848     24846     24844     24847     24849
     24846     24844     24847     24850     24848     24847     24850     24851
     24848     24847     24850     24852     24848     24847     24850     24853
     24849     24847     24850     24851     24849     24847     24850     24852
     24849     24847     24850     24853     24854     24857     24860     24861
     24854     24857     24860     24862     24854     24857     24860     24863
     24855     24854     24857     24858     24855     24854     24857     24859
     24855     24854     24857     24860     24856     24854     24857     24858
     24856     24854     24857     24859     24856     24854     24857     24860
     24857     24860     24863     24864     24857     24860     24863     24865
     24857     24860     24863     24866     24858     24857     24860     24861
     24858     24857     24860     24862     24858     24857     24860     24863
     24859     24857     24860     24861     24859     24857     24860     24862
     24859     24857     24860     24863     24860     24863     24866     24867
     24860     24863     24866     24868     24860     24863     24866     24869
     24861     24860     24863     24864     24861     24860     24863     24865
     24861     24860     24863     24866     24862     24860     24863     24864
     24862     24860     24863     24865     24862     24860     24863     24866
     24863     24866     24869     24870     24863     24866     24869     24871
     24863     24866     24869     24872     24864     24863     24866     24867
     24864     24863     24866     24868     24864     24863     24866     24869
     24865     24863     24866     24867     24865     24863     24866     24868
     24865     24863     24866     24869     24866     24869     24872     24873
     24866     24869     24872     24874     24867     24866     24869     24870
     24867     24866     24869     24871     24867     24866     24869     24872
     24868     24866     24869     24870     24868     24866     24869     24871
     24868     24866     24869     24872     24869     24872     24874     24875
     24869     24872     24874     24876     24870     24869     24872     24873
     24870     24869     24872     24874     24871     24869     24872     24873
     24871     24869     24872     24874     24872     24874     24876     24877
     24872     24874     24876     24878     24872     24874     24876     24879
     24873     24872     24874     24875     24873     24872     24874     24876
     24874     24876     24879     24880     24874     24876     24879     24881
     24874     24876     24879     24882     24875     24874     24876     24877
     24875     24874     24876     24878     24875     24874     24876     24879
     24876     24879     24882     24883     24876     24879     24882     24884
     24876     24879     24882     24885     24877     24876     24879     24880
     24877     24876     24879     24881     24877     24876     24879     24882
     24878     24876     24879     24880     24878     24876     24879     24881
     24878     24876     24879     24882     24879     24882     24885     24886
     24879     24882     24885     24887     24879     24882     24885     24888
     24880     24879     24882     24883     24880     24879     24882     24884
     24880     24879     24882     24885     24881     24879     24882     24883
     24881     24879     24882     24884     24881     24879     24882     24885
     24882     24885     24888     24889     24882     24885     24888     24890
     24882     24885     24888     24891     24883     24882     24885     24886
     24883     24882     24885     24887     24883     24882     24885     24888
     24884     24882     24885     24886     24884     24882     24885     24887
     24884     24882     24885     24888     24885     24888     24891     24892
     24885     24888     24891     24893     24885     24888     24891     24894
     24886     24885     24888     24889     24886     24885     24888     24890
     24886     24885     24888     24891     24887     24885     24888     24889
     24887     24885     24888     24890     24887     24885     24888     24891
     24888     24891     24894     24895     24888     24891     24894     24896
     24888     24891     24894     24897     24889     24888     24891     24892
     24889     24888     24891     24893     24889     24888     24891     24894
     24890     24888     24891     24892     24890     24888     24891     24893
     24890     24888     24891     24894     24891     24894     24897     24898
     24891     24894     24897     24899     24891     24894     24897     24900
     24892     24891     24894     24895     24892     24891     24894     24896
     24892     24891     24894     24897     24893     24891     24894     24895
     24893     24891     24894     24896     24893     24891     24894     24897
     24895     24894     24897     24898     24895     24894     24897     24899
     24895     24894     24897     24900     24896     24894     24897     24898
     24896     24894     24897     24899     24896     24894     24897     24900

       320 !NIMPHI: impropers
        22        21        24        23        31        30        33        32
       209       211       157       210       157       209       159       158
       357       359       305       358       305       357       307       306
       521       520       523       522       530       529       532       531
       659       658       661       660       668       667       670       669
       797       796       799       798       806       805       808       807
       935       934       937       936       944       943       946       945
      1064      1063      1066      1065      1073      1072      1075      1074
      1325      1327      1273      1326      1273      1325      1275      1274
      1424      1423      1426      1425      1433      1432      1435      1434
      1611      1613      1559      1612      1559      1611      1561      1560
      1775      1774      1777      1776      1784      1783      1786      1785
      1913      1912      1915      1914      1922      1921      1924      1923
      2100      2102      2048      2101      2048      2100      2050      2049
      2199      2198      2201      2200      2208      2207      2210      2209
      2386      2388      2334      2387      2334      2386      2336      2335
      2476      2475      2478      2477      2485      2484      2487      2486
      2614      2613      2616      2615      2623      2622      2625      2624
      2752      2751      2754      2753      2761      2760      2763      2762
      2939      2941      2887      2940      2887      2939      2889      2888
      3038      3037      3040      3039      3047      3046      3049      3048
      3167      3166      3169      3168      3176      3175      3178      3177
      3296      3295      3298      3297      3305      3304      3307      3306
      3425      3424      3427      3426      3434      3433      3436      3435
      3760      3762      3708      3761      3708      3760      3710      3709
      3908      3910      3856      3909      3856      3908      3858      3857
      4130      4132      4078      4131      4078      4130      4080      4079
      4303      4302      4305      4304      4312      4311      4314      4313
      4515      4514      4517      4516      4524      4523      4526      4525
      4653      4652      4655      4654      4662      4661      4664      4663
      4782      4781      4784      4783      4791      4790      4793      4792
      4985      4984      4987      4986      4994      4993      4996      4995
      5114      5113      5116      5115      5123      5122      5125      5124
      5252      5251      5254      5253      5261      5260      5263      5262
      5381      5380      5383      5382      5390      5389      5392      5391
      5519      5518      5521      5520      5528      5527      5530      5529
      5648      5647      5650      5649      5657      5656      5659      5658
      5786      5785      5788      5787      5795      5794      5797      5796
      6047      6049      5995      6048      5995      6047      5997      5996
      6195      6197      6143      6196      6143      6195      6145      6144
      6285      6284      6287      6286      6294      6293      6296      6295
      6423      6422      6425      6424      6432      6431      6434      6433
      6610      6612      6558      6611      6558      6610      6560      6559
      6709      6708      6711      6710      6718      6717      6720      6719
      6912      6911      6914      6913      6921      6920      6923      6922
      7124      7123      7126      7125      7133      7132      7135      7134
      7311      7313      7259      7312      7259      7311      7261      7260
      7459      7461      7407      7460      7407      7459      7409      7408
      7549      7548      7551      7550      7558      7557      7560      7559
      7687      7686      7689      7688      7696      7695      7698      7697
      7825      7824      7827      7826      7834      7833      7836      7835
      8028      8027      8030      8029      8037      8036      8039      8038
      8166      8165      8168      8167      8175      8174      8177      8176
      8304      8303      8306      8305      8313      8312      8315      8314
      8442      8441      8444      8443      8451      8450      8453      8452
      8571      8570      8573      8572      8580      8579      8582      8581
      8700      8699      8702      8701      8709      8708      8711      8710
      8903      8902      8905      8904      8912      8911      8914      8913
      9180      9179      9182      9181      9189      9188      9191      9190
      9318      9317      9320      9319      9327      9326      9329      9328
      9456      9455      9458      9457      9465      9464      9467      9466
      9585      9584      9587      9586      9594      9593      9596      9595
      9714      9713      9716      9715      9723      9722      9725      9724
      9901      9903      9849      9902      9849      9901      9851      9850
     10065     10064     10067     10066     10074     10073     10076     10075
     10203     10202     10205     10204     10212     10211     10214     10213
     10390     10392     10338     10391     10338     10390     10340     10339
     10489     10488     10491     10490     10498     10497     10500     10499
     10627     10626     10629     10628     10636     10635     10638     10637
     10756     10755     10758     10757     10765     10764     10767     10766
     10943     10945     10891     10944     10891     10943     10893     10892
     11116     11115     11118     11117     11125     11124     11127     11126
     11245     11244     11247     11246     11254     11253     11256     11255
     11374     11373     11376     11375     11383     11382     11385     11384
     11512     11511     11514     11513     11521     11520     11523     11522
     11773     11775     11721     11774     11721     11773     11723     11722
     11863     11862     11865     11864     11872     11871     11874     11873
     11992     11991     11994     11993     12001     12000     12003     12002
     12179     12181     12127     12180     12127     12179     12129     12128
     12269     12268     12271     12270     12278     12277     12280     12279
     12530     12532     12478     12531     12478     12530     12480     12479
     12752     12754     12700     12753     12700     12752     12702     12701
     12851     12850     12853     12852     12860     12859     12862     12861
     12989     12988     12991     12990     12998     12997     13000     12999
     13118     13117     13120     13119     13127     13126     13129     13128
     13247     13246     13249     13248     13256     13255     13258     13257
     13434     13436     13382     13435     13382     13434     13384     13383
     13804     13806     13752     13805     13752     13804     13754     13753
     13894     13893     13896     13895     13903     13902     13905     13904
     14097     14096     14099     14098     14106     14105     14108     14107
     14300     14299     14302     14301     14309     14308     14311     14310
     14438     14437     14440     14439     14447     14446     14449     14448
     14567     14566     14569     14568     14576     14575     14578     14577
     14705     14704     14707     14706     14714     14713     14716     14715
     14834     14833     14836     14835     14843     14842     14845     14844
     14963     14962     14965     14964     14972     14971     14974     14973
     15092     15091     15094     15093     15101     15100     15103     15102
     15279     15281     15227     15280     15227     15279     15229     15228
     15378     15377     15380     15379     15387     15386     15389     15388
     15507     15506     15509     15508     15516     15515     15518     15517
     15694     15696     15642     15695     15642     15694     15644     15643
     15842     15844     15790     15843     15790     15842     15792     15791
     15941     15940     15943     15942     15950     15949     15952     15951
     16079     16078     16081     16080     16088     16087     16090     16089
     16208     16207     16210     16209     16217     16216     16219     16218
     16395     16397     16343     16396     16343     16395     16345     16344
     16485     16484     16487     16486     16494     16493     16496     16495
     16672     16674     16620     16673     16620     16672     16622     16621
     16771     16770     16773     16772     16780     16779     16782     16781
     16909     16908     16911     16910     16918     16917     16920     16919
     17038     17037     17040     17039     17047     17046     17049     17048
     17299     17301     17247     17300     17247     17299     17249     17248
     17398     17397     17400     17399     17407     17406     17409     17408
     17585     17587     17533     17586     17533     17585     17535     17534
     17832     17831     17834     17833     17841     17840     17843     17842
     18019     18021     17967     18020     17967     18019     17969     17968
     18109     18108     18111     18110     18118     18117     18120     18119
     18238     18237     18240     18239     18247     18246     18249     18248
     18441     18440     18443     18442     18450     18449     18452     18451
     18628     18630     18576     18629     18576     18628     18578     18577
     18727     18726     18729     18728     18736     18735     18738     18737
     18856     18855     18858     18857     18865     18864     18867     18866
     19117     19119     19065     19118     19065     19117     19067     19066
     19355     19354     19357     19356     19364     19363     19366     19365
     19616     19618     19564     19617     19564     19616     19566     19565
     19715     19714     19717     19716     19724     19723     19726     19725
     19853     19852     19855     19854     19862     19861     19864     19863
     19991     19990     19993     19992     20000     19999     20002     20001
     20120     20119     20122     20121     20129     20128     20131     20130
     20249     20248     20251     20250     20258     20257     20260     20259
     20387     20386     20389     20388     20396     20395     20398     20397
     20525     20524     20527     20526     20534     20533     20536     20535
     20654     20653     20656     20655     20663     20662     20665     20664
     20857     20856     20859     20858     20866     20865     20868     20867
     20995     20994     20997     20996     21004     21003     21006     21005
     21133     21132     21135     21134     21142     21141     21144     21143
     21262     21261     21264     21263     21271     21270     21273     21272
     21449     21451     21397     21450     21397     21449     21399     21398
     21622     21621     21624     21623     21631     21630     21633     21632
     21751     21750     21753     21752     21760     21759     21762     21761
     21889     21888     21891     21890     21898     21897     21900     21899
     22076     22078     22024     22077     22024     22076     22026     22025
     22166     22165     22168     22167     22175     22174     22177     22176
     22295     22294     22297     22296     22304     22303     22306     22305
     22433     22432     22435     22434     22442     22441     22444     22443
     22571     22570     22573     22572     22580     22579     22582     22581
     22783     22782     22785     22784     22792     22791     22794     22793
     22986     22985     22988     22987     22995     22994     22997     22996
     23124     23123     23126     23125     23133     23132     23135     23134
     23253     23252     23255     23254     23262     23261     23264     23263
     23391     23390     23393     23392     23400     23399     23402     23401
     23529     23528     23531     23530     23538     23537     23540     23539
     23667     23666     23669     23668     23676     23675     23678     23677
     23805     23804     23807     23806     23814     23813     23816     23815
     23943     23942     23945     23944     23952     23951     23954     23953
     24130     24132     24078     24131     24078     24130     24080     24079
     24294     24293     24296     24295     24303     24302     24305     24304
     24481     24483     24429     24482     24429     24481     24431     24430
     24703     24705     24651     24704     24651     24703     24653     24652
     24793     24792     24795     24794     24802     24801     24804     24803

         0 !NDON: donors


         0 !NACC: acceptors


         0 !NNB

         0         0         0         0         0         0         0         0
         0         0         0         0         0         0         0         0
         0         0         0         0         0         0         0         0
         0         0         0         0         0         0         0         0
         0         0         0         0         0         0         0         0
         0         0         0         0         0         0         0         0
         0         0         0         0         0         0         0         0
         0         0         0         0         0         0         0         0
         0         0         0         0         0         0         0         0
         0         0         0         0         0         0         0         0
         0         0         0         0         0         0         0         0
         0         0         0         0         0         0         0         0
         0         0         0         0         0         0         0         0
         0         0         0         0         0         0         0         0
         0         0         0         0         0         0         0         0
         0         0         0         0         0         0         0         0
         0         0         0         0         0         0         0         0
         0         0         0         0         0         0         0         0
         0         0         0         0         0         0         0         0
         0         0         0         0         0         0         0         0
         0         0         0         0         0         0         0         0
         0         0         0         0         0         0         0         0
         0         0         0         0         0         0         0         0
         0         0         0         0         0         0         0         0
         0         0         0         0         0         0         0         0
         0         0         0         0         0         0         0         0
         0         0         0         0         0         0         0         0
         0         0         0         0         0         0         0         0
         0         0         0         0         0         0         0         0
         0         0         0         0         0         0         0         0
         0         0         0         0         0         0         0         0
         0         0         0         0         0         0         0         0
         0         0         0         0         0         0         0         0
         0         0         0         0         0         0         0         0
         0         0         0         0         0         0         0         0
         0         0         0         0         0         0         0         0
         0         0         0         0         0         0         0         0
         0         0         0         0         0         0         0         0
         0         0         0         0         0         0         0         0
         0         0         0         0         0         0         0         0
         0         0         0         0         0         0         0         0
         0         0         0         0         0         0         0         0
         0         0         0         0         0         0         0         0
         0         0         0         0         0         0         0         0
         0         0         0         0         0         0         0         0
         0         0         0         0         0         0         0         0
         0         0         0         0         0         0         0         0
         0         0         0         0         0         0         0         0
         0         0         0         0         0         0         0         0
         0         0         0         0         0         0         0         0
         0         0         0         0         0         0         0         0
         0         0         0         0         0         0         0         0
         0         0         0         0         0         0         0         0
         0         0         0         0         0         0         0         0
         0         0         0         0         0         0         0         0
         0         0         0         0         0         0         0         0
         0         0         0         0         0         0         0         0
         0         0         0         0         0         0         0         0
         0         0         0         0         0         0         0         0
         0         0         0         0         0         0         0         0
         0         0         0         0         0         0         0         0
         0         0         0         0         0         0         0         0
         0         0         0         0         0         0         0         0
         0         0         0         0         0         0         0         0
         0         0         0         0         0         0         0         0
         0         0         0         0         0         0         0         0
         0         0         0         0         0         0         0         0
         0         0         0         0         0         0         0         0
         0         0         0         0         0         0         0         0
         0         0         0         0         0         0         0         0
         0         0         0         0         0         0         0         0
         0         0         0         0         0         0         0         0
         0         0         0         0         0         0         0         0
         0         0         0         0         0         0         0         0
         0         0         0         0         0         0         0         0
         0         0         0         0         0         0         0         0
         0         0         0         0         0         0         0         0
         0         0         0         0         0         0         0         0
         0         0         0         0         0         0         0         0
         0         0         0         0         0         0         0         0
         0         0         0         0         0         0         0         0
         0         0         0         0         0         0         0         0
         0         0         0         0         0         0         0         0
         0         0         0         0         0         0         0         0
         0         0         0         0         0         0         0         0
         0         0         0         0         0         0         0         0
         0         0         0         0         0         0         0         0
         0         0         0         0         0         0         0         0
         0         0         0         0         0         0         0         0
         0         0         0         0         0         0         0         0
         0         0         0         0         0         0         0         0
         0         0         0         0         0         0         0         0
         0         0         0         0         0         0         0         0
         0         0         0         0         0         0         0         0
         0         0         0         0         0         0         0         0
         0         0         0         0         0         0         0         0
         0         0         0         0         0         0         0         0
         0         0         0         0         0         0         0         0
         0         0         0         0         0         0         0         0
         0         0         0         0         0         0         0         0
         0         0         0         0         0         0         0         0
         0         0         0         0         0         0         0         0
         0         0         0         0         0         0         0         0
         0         0         0         0         0         0         0         0
         0         0         0         0         0         0         0         0
         0         0         0         0         0         0         0         0
         0         0         0         0         0         0         0         0
         0         0         0         0         0         0         0         0
         0         0         0         0         0         0         0         0
         0         0         0         0         0         0         0         0
         0         0         0         0         0         0         0         0
         0         0         0         0         0         0         0         0
         0         0         0         0         0         0         0         0
         0         0         0         0         0         0         0         0
         0         0         0         0         0         0         0         0
         0         0         0         0         0         0         0         0
         0         0         0         0         0         0         0         0
         0         0         0         0         0         0         0         0
         0         0         0         0         0         0         0         0
         0         0         0         0         0         0         0         0
         0         0         0         0         0         0         0         0
         0         0         0         0         0         0         0         0
         0         0         0         0         0         0         0         0
         0         0         0         0         0         0         0         0
         0         0         0         0         0         0         0         0
         0         0         0         0         0         0         0         0
         0         0         0         0         0         0         0         0
         0         0         0         0         0         0         0         0
         0         0         0         0         0         0         0         0
         0         0         0         0         0         0         0         0
         0         0         0         0         0         0         0         0
         0         0         0         0         0         0         0         0
         0         0         0         0         0         0         0         0
         0         0         0         0         0         0         0         0
         0         0         0         0         0         0         0         0
         0         0         0         0         0         0         0         0
         0         0         0         0         0         0         0         0
         0         0         0         0         0         0         0         0
         0         0         0         0         0         0         0         0
         0         0         0         0         0         0         0         0
         0         0         0         0         0         0         0         0
         0         0         0         0         0         0         0         0
         0         0         0         0         0         0         0         0
         0         0         0         0         0         0         0         0
         0         0         0         0         0         0         0         0
         0         0         0         0         0         0         0         0
         0         0         0         0         0         0         0         0
         0         0         0         0         0         0         0         0
         0         0         0         0         0         0         0         0
         0         0         0         0         0         0         0         0
         0         0         0         0         0         0         0         0
         0         0         0         0         0         0         0         0
         0         0         0         0         0         0         0         0
         0         0         0         0         0         0         0         0
         0         0         0         0         0         0         0         0
         0         0         0         0         0         0         0         0
         0         0         0         0         0         0         0         0
         0         0         0         0         0         0         0         0
         0         0         0         0         0         0         0         0
         0         0         0         0         0         0         0         0
         0         0         0         0         0         0         0         0
         0         0         0         0         0         0         0         0
         0         0         0         0         0         0         0         0
         0         0         0         0         0         0         0         0
         0         0         0         0         0         0         0         0
         0         0         0         0         0         0         0         0
         0         0         0         0         0         0         0         0
         0         0         0         0         0         0         0         0
         0         0         0         0         0         0         0         0
         0         0         0         0         0         0         0         0
         0         0         0         0         0         0         0         0
         0         0         0         0         0         0         0         0
         0         0         0         0         0         0         0         0
         0         0         0         0         0         0         0         0
         0         0         0         0         0         0         0         0
         0         0         0         0         0         0         0         0
         0         0         0         0         0         0         0         0
         0         0         0         0         0         0         0         0
         0         0         0         0         0         0         0         0
         0         0         0         0         0         0         0         0
         0         0         0         0         0         0         0         0
         0         0         0         0         0         0         0         0
         0         0         0         0         0         0         0         0
         0         0         0         0         0         0         0         0
         0         0         0         0         0         0         0         0
         0         0         0         0         0         0         0         0
         0         0         0         0         0         0         0         0
         0         0         0         0         0         0         0         0
         0         0         0         0         0         0         0         0
         0         0         0         0         0         0         0         0
         0         0         0         0         0         0         0         0
         0         0         0         0         0         0         0         0
         0         0         0         0         0         0         0         0
         0         0         0         0         0         0         0         0
         0         0         0         0         0         0         0         0
         0         0         0         0         0         0         0         0
         0         0         0         0         0         0         0         0
         0         0         0         0         0         0         0         0
         0         0         0         0         0         0         0         0
         0         0         0         0         0         0         0         0
         0         0         0         0         0         0         0         0
         0         0         0         0         0         0         0         0
         0         0         0         0         0         0         0         0
         0         0         0         0         0         0         0         0
         0         0         0         0         0         0         0         0
         0         0         0         0         0         0         0         0
         0         0         0         0         0         0         0         0
         0         0         0         0         0         0         0         0
         0         0         0         0         0         0         0         0
         0         0         0         0         0         0         0         0
         0         0         0         0         0         0         0         0
         0         0         0         0         0         0         0         0
         0         0         0         0         0         0         0         0
         0         0         0         0         0         0         0         0
         0         0         0         0         0         0         0         0
         0         0         0         0         0         0         0         0
         0         0         0         0         0         0         0         0
         0         0         0         0         0         0         0         0
         0         0         0         0         0         0         0         0
         0         0         0         0         0         0         0         0
         0         0         0         0         0         0         0         0
         0         0         0         0         0         0         0         0
         0         0         0         0         0         0         0         0
         0         0         0         0         0         0         0         0
         0         0         0         0         0         0         0         0
         0         0         0         0         0         0         0         0
         0         0         0         0         0         0         0         0
         0         0         0         0         0         0         0         0
         0         0         0         0         0         0         0         0
         0         0         0         0         0         0         0         0
         0         0         0         0         0         0         0         0
         0         0         0         0         0         0         0         0
         0         0         0         0         0         0         0         0
         0         0         0         0         0         0         0         0
         0         0         0         0         0         0         0         0
         0         0         0         0         0         0         0         0
         0         0         0         0         0         0         0         0
         0         0         0         0         0         0         0         0
         0         0         0         0         0         0         0         0
         0         0         0         0         0         0         0         0
         0         0         0         0         0         0         0         0
         0         0         0         0         0         0         0         0
         0         0         0         0         0         0         0         0
         0         0         0         0         0         0         0         0
         0         0         0         0         0         0         0         0
         0         0         0         0         0         0         0         0
         0         0         0         0         0         0         0         0
         0         0         0         0         0         0         0         0
         0         0         0         0         0         0         0         0
         0         0         0         0         0         0         0         0
         0         0         0         0         0         0         0         0
         0         0         0         0         0         0         0         0
         0         0         0         0         0         0         0         0
         0         0         0         0         0         0         0         0
         0         0         0         0         0         0         0         0
         0         0         0         0         0         0         0         0
         0         0         0         0         0         0         0         0
         0         0         0         0         0         0         0         0
         0         0         0         0         0         0         0         0
         0         0         0         0         0         0         0         0
         0         0         0         0         0         0         0         0
         0         0         0         0         0         0         0         0
         0         0         0         0         0         0         0         0
         0         0         0         0         0         0         0         0
         0         0         0         0         0         0         0         0
         0         0         0         0         0         0         0         0
         0         0         0         0         0         0         0         0
         0         0         0         0         0         0         0         0
         0         0         0         0         0         0         0         0
         0         0         0         0         0         0         0         0
         0         0         0         0         0         0         0         0
         0         0         0         0         0         0         0         0
         0         0         0         0         0         0         0         0
         0         0         0         0         0         0         0         0
         0         0         0         0         0         0         0         0
         0         0         0         0         0         0         0         0
         0         0         0         0         0         0         0         0
         0         0         0         0         0         0         0         0
         0         0         0         0         0         0         0         0
         0         0         0         0         0         0         0         0
         0         0         0         0         0         0         0         0
         0         0         0         0         0         0         0         0
         0         0         0         0         0         0         0         0
         0         0         0         0         0         0         0         0
         0         0         0         0         0         0         0         0
         0         0         0         0         0         0         0         0
         0         0         0         0         0         0         0         0
         0         0         0         0         0         0         0         0
         0         0         0         0         0         0         0         0
         0         0         0         0         0         0         0         0
         0         0         0         0         0         0         0         0
         0         0         0         0         0         0         0         0
         0         0         0         0         0         0         0         0
         0         0         0         0         0         0         0         0
         0         0         0         0         0         0         0         0
         0         0         0         0         0         0         0         0
         0         0         0         0         0         0         0         0
         0         0         0         0         0         0         0         0
         0         0         0         0         0         0         0         0
         0         0         0         0         0         0         0         0
         0         0         0         0         0         0         0         0
         0         0         0         0         0         0         0         0
         0         0         0         0         0         0         0         0
         0         0         0         0         0         0         0         0
         0         0         0         0         0         0         0         0
         0         0         0         0         0         0         0         0
         0         0         0         0         0         0         0         0
         0         0         0         0         0         0         0         0
         0         0         0         0         0         0         0         0
         0         0         0         0         0         0         0         0
         0         0         0         0         0         0         0         0
         0         0         0         0         0         0         0         0
         0         0         0         0         0         0         0         0
         0         0         0         0         0         0         0         0
         0         0         0         0         0         0         0         0
         0         0         0         0         0         0         0         0
         0         0         0         0         0         0         0         0
         0         0         0         0         0         0         0         0
         0         0         0         0         0         0         0         0
         0         0         0         0         0         0         0         0
         0         0         0         0         0         0         0         0
         0         0         0         0         0         0         0         0
         0         0         0         0         0         0         0         0
         0         0         0         0         0         0         0         0
         0         0         0         0         0         0         0         0
         0         0         0         0         0         0         0         0
         0         0         0         0         0         0         0         0
         0         0         0         0         0         0         0         0
         0         0         0         0         0         0         0         0
         0         0         0         0         0         0         0         0
         0         0         0         0         0         0         0         0
         0         0         0         0         0         0         0         0
         0         0         0         0         0         0         0         0
         0         0         0         0         0         0         0         0
         0         0         0         0         0         0         0         0
         0         0         0         0         0         0         0         0
         0         0         0         0         0         0         0         0
         0         0         0         0         0         0         0         0
         0         0         0         0         0         0         0         0
         0         0         0         0         0         0         0         0
         0         0         0         0         0         0         0         0
         0         0         0         0         0         0         0         0
         0         0         0         0         0         0         0         0
         0         0         0         0         0         0         0         0
         0         0         0         0         0         0         0         0
         0         0         0         0         0         0         0         0
         0         0         0         0         0         0         0         0
         0         0         0         0         0         0         0         0
         0         0         0         0         0         0         0         0
         0         0         0         0         0         0         0         0
         0         0         0         0         0         0         0         0
         0         0         0         0         0         0         0         0
         0         0         0         0         0         0         0         0
         0         0         0         0         0         0         0         0
         0         0         0         0         0         0         0         0
         0         0         0         0         0         0         0         0
         0         0         0         0         0         0         0         0
         0         0         0         0         0         0         0         0
         0         0         0         0         0         0         0         0
         0         0         0         0         0         0         0         0
         0         0         0         0         0         0         0         0
         0         0         0         0         0         0         0         0
         0         0         0         0         0         0         0         0
         0         0         0         0         0         0         0         0
         0         0         0         0         0         0         0         0
         0         0         0         0         0         0         0         0
         0         0         0         0         0         0         0         0
         0         0         0         0         0         0         0         0
         0         0         0         0         0         0         0         0
         0         0         0         0         0         0         0         0
         0         0         0         0         0         0         0         0
         0         0         0         0         0         0         0         0
         0         0         0         0         0         0         0         0
         0         0         0         0         0         0         0         0
         0         0         0         0         0         0         0         0
         0         0         0         0         0         0         0         0
         0         0         0         0         0         0         0         0
         0         0         0         0         0         0         0         0
         0         0         0         0         0         0         0         0
         0         0         0         0         0         0         0         0
         0         0         0         0         0         0         0         0
         0         0         0         0         0         0         0         0
         0         0         0         0         0         0         0         0
         0         0         0         0         0         0         0         0
         0         0         0         0         0         0         0         0
         0         0         0         0         0         0         0         0
         0         0         0         0         0         0         0         0
         0         0         0         0         0         0         0         0
         0         0         0         0         0         0         0         0
         0         0         0         0         0         0         0         0
         0         0         0         0         0         0         0         0
         0         0         0         0         0         0         0         0
         0         0         0         0         0         0         0         0
         0         0         0         0         0         0         0         0
         0         0         0         0         0         0         0         0
         0         0         0         0         0         0         0         0
         0         0         0         0         0         0         0         0
         0         0         0         0         0         0         0         0
         0         0         0         0         0         0         0         0
         0         0         0         0         0         0         0         0
         0         0         0         0         0         0         0         0
         0         0         0         0         0         0         0         0
         0         0         0         0         0         0         0         0
         0         0         0         0         0         0         0         0
         0         0         0         0         0         0         0         0
         0         0         0         0         0         0         0         0
         0         0         0         0         0         0         0         0
         0         0         0         0         0         0         0         0
         0         0         0         0         0         0         0         0
         0         0         0         0         0         0         0         0
         0         0         0         0         0         0         0         0
         0         0         0         0         0         0         0         0
         0         0         0         0         0         0         0         0
         0         0         0         0         0         0         0         0
         0         0         0         0         0         0         0         0
         0         0         0         0         0         0         0         0
         0         0         0         0         0         0         0         0
         0         0         0         0         0         0         0         0
         0         0         0         0         0         0         0         0
         0         0         0         0         0         0         0         0
         0         0         0         0         0         0         0         0
         0         0         0         0         0         0         0         0
         0         0         0         0         0         0         0         0
         0         0         0         0         0         0         0         0
         0         0         0         0         0         0         0         0
         0         0         0         0         0         0         0         0
         0         0         0         0         0         0         0         0
         0         0         0         0         0         0         0         0
         0         0         0         0         0         0         0         0
         0         0         0         0         0         0         0         0
         0         0         0         0         0         0         0         0
         0         0         0         0         0         0         0         0
         0         0         0         0         0         0         0         0
         0         0         0         0         0         0         0         0
         0         0         0         0         0         0         0         0
         0         0         0         0         0         0         0         0
         0         0         0         0         0         0         0         0
         0         0         0         0         0         0         0         0
         0         0         0         0         0         0         0         0
         0         0         0         0         0         0         0         0
         0         0         0         0         0         0         0         0
         0         0         0         0         0         0         0         0
         0         0         0         0         0         0         0         0
         0         0         0         0         0         0         0         0
         0         0         0         0         0         0         0         0
         0         0         0         0         0         0         0         0
         0         0         0         0         0         0         0         0
         0         0         0         0         0         0         0         0
         0         0         0         0         0         0         0         0
         0         0         0         0         0         0         0         0
         0         0         0         0         0         0         0         0
         0         0         0         0         0         0         0         0
         0         0         0         0         0         0         0         0
         0         0         0         0         0         0         0         0
         0         0         0         0         0         0         0         0
         0         0         0         0         0         0         0         0
         0         0         0         0         0         0         0         0
         0         0         0         0         0         0         0         0
         0         0         0         0         0         0         0         0
         0         0         0         0         0         0         0         0
         0         0         0         0         0         0         0         0
         0         0         0         0         0         0         0         0
         0         0         0         0         0         0         0         0
         0         0         0         0         0         0         0         0
         0         0         0         0         0         0         0         0
         0         0         0         0         0         0         0         0
         0         0         0         0         0         0         0         0
         0         0         0         0         0         0         0         0
         0         0         0         0         0         0         0         0
         0         0         0         0         0         0         0         0
         0         0         0         0         0         0         0         0
         0         0         0         0         0         0         0         0
         0         0         0         0         0         0         0         0
         0         0         0         0         0         0         0         0
         0         0         0         0         0         0         0         0
         0         0         0         0         0         0         0         0
         0         0         0         0         0         0         0         0
         0         0         0         0         0         0         0         0
         0         0         0         0         0         0         0         0
         0         0         0         0         0         0         0         0
         0         0         0         0         0         0         0         0
         0         0         0         0         0         0         0         0
         0         0         0         0         0         0         0         0
         0         0         0         0         0         0         0         0
         0         0         0         0         0         0         0         0
         0         0         0         0         0         0         0         0
         0         0         0         0         0         0         0         0
         0         0         0         0         0         0         0         0
         0         0         0         0         0         0         0         0
         0         0         0         0         0         0         0         0
         0         0         0         0         0         0         0         0
         0         0         0         0         0         0         0         0
         0         0         0         0         0         0         0         0
         0         0         0         0         0         0         0         0
         0         0         0         0         0         0         0         0
         0         0         0         0         0         0         0         0
         0         0         0         0         0         0         0         0
         0         0         0         0         0         0         0         0
         0         0         0         0         0         0         0         0
         0         0         0         0         0         0         0         0
         0         0         0         0         0         0         0         0
         0         0         0         0         0         0         0         0
         0         0         0         0         0         0         0         0
         0         0         0         0         0         0         0         0
         0         0         0         0         0         0         0         0
         0         0         0         0         0         0         0         0
         0         0         0         0         0         0         0         0
         0         0         0         0         0         0         0         0
         0         0         0         0         0         0         0         0
         0         0         0         0         0         0         0         0
         0         0         0         0         0         0         0         0
         0         0         0         0         0         0         0         0
         0         0         0         0         0         0         0         0
         0         0         0         0         0         0         0         0
         0         0         0         0         0         0         0         0
         0         0         0         0         0         0         0         0
         0         0         0         0         0         0         0         0
         0         0         0         0         0         0         0         0
         0         0         0         0         0         0         0         0
         0         0         0         0         0         0         0         0
         0         0         0         0         0         0         0         0
         0         0         0         0         0         0         0         0
         0         0         0         0         0         0         0         0
         0         0         0         0         0         0         0         0
         0         0         0         0         0         0         0         0
         0         0         0         0         0         0         0         0
         0         0         0         0         0         0         0         0
         0         0         0         0         0         0         0         0
         0         0         0         0         0         0         0         0
         0         0         0         0         0         0         0         0
         0         0         0         0         0         0         0         0
         0         0         0         0         0         0         0         0
         0         0         0         0         0         0         0         0
         0         0         0         0         0         0         0         0
         0         0         0         0         0         0         0         0
         0         0         0         0         0         0         0         0
         0         0         0         0         0         0         0         0
         0         0         0         0         0         0         0         0
         0         0         0         0         0         0         0         0
         0         0         0         0         0         0         0         0
         0         0         0         0         0         0         0         0
         0         0         0         0         0         0         0         0
         0         0         0         0         0         0         0         0
         0         0         0         0         0         0         0         0
         0         0         0         0         0         0         0         0
         0         0         0         0         0         0         0         0
         0         0         0         0         0         0         0         0
         0         0         0         0         0         0         0         0
         0         0         0         0         0         0         0         0
         0         0         0         0         0         0         0         0
         0         0         0         0         0         0         0         0
         0         0         0         0         0         0         0         0
         0         0         0         0         0         0         0         0
         0         0         0         0         0         0         0         0
         0         0         0         0         0         0         0         0
         0         0         0         0         0         0         0         0
         0         0         0         0         0         0         0         0
         0         0         0         0         0         0         0         0
         0         0         0         0         0         0         0         0
         0         0         0         0         0         0         0         0
         0         0         0         0         0         0         0         0
         0         0         0         0         0         0         0         0
         0         0         0         0         0         0         0         0
         0         0         0         0         0         0         0         0
         0         0         0         0         0         0         0         0
         0         0         0         0         0         0         0         0
         0         0         0         0         0         0         0         0
         0         0         0         0         0         0         0         0
         0         0         0         0         0         0         0         0
         0         0         0         0         0         0         0         0
         0         0         0         0         0         0         0         0
         0         0         0         0         0         0         0         0
         0         0         0         0         0         0         0         0
         0         0         0         0         0         0         0         0
         0         0         0         0         0         0         0         0
         0         0         0         0         0         0         0         0
         0         0         0         0         0         0         0         0
         0         0         0         0         0         0         0         0
         0         0         0         0         0         0         0         0
         0         0         0         0         0         0         0         0
         0         0         0         0         0         0         0         0
         0         0         0         0         0         0         0         0
         0         0         0         0         0         0         0         0
         0         0         0         0         0         0         0         0
         0         0         0         0         0         0         0         0
         0         0         0         0         0         0         0         0
         0         0         0         0         0         0         0         0
         0         0         0         0         0         0         0         0
         0         0         0         0         0         0         0         0
         0         0         0         0         0         0         0         0
         0         0         0         0         0         0         0         0
         0         0         0         0         0         0         0         0
         0         0         0         0         0         0         0         0
         0         0         0         0         0         0         0         0
         0         0         0         0         0         0         0         0
         0         0         0         0         0         0         0         0
         0         0         0         0         0         0         0         0
         0         0         0         0         0         0         0         0
         0         0         0         0         0         0         0         0
         0         0         0         0         0         0         0         0
         0         0         0         0         0         0         0         0
         0         0         0         0         0         0         0         0
         0         0         0         0         0         0         0         0
         0         0         0         0         0         0         0         0
         0         0         0         0         0         0         0         0
         0         0         0         0         0         0         0         0
         0         0         0         0         0         0         0         0
         0         0         0         0         0         0         0         0
         0         0         0         0         0         0         0         0
         0         0         0         0         0         0         0         0
         0         0         0         0         0         0         0         0
         0         0         0         0         0         0         0         0
         0         0         0         0         0         0         0         0
         0         0         0         0         0         0         0         0
         0         0         0         0         0         0         0         0
         0         0         0         0         0         0         0         0
         0         0         0         0         0         0         0         0
         0         0         0         0         0         0         0         0
         0         0         0         0         0         0         0         0
         0         0         0         0         0         0         0         0
         0         0         0         0         0         0         0         0
         0         0         0         0         0         0         0         0
         0         0         0         0         0         0         0         0
         0         0         0         0         0         0         0         0
         0         0         0         0         0         0         0         0
         0         0         0         0         0         0         0         0
         0         0         0         0         0         0         0         0
         0         0         0         0         0         0         0         0
         0         0         0         0         0         0         0         0
         0         0         0         0         0         0         0         0
         0         0         0         0         0         0         0         0
         0         0         0         0         0         0         0         0
         0         0         0         0         0         0         0         0
         0         0         0         0         0         0         0         0
         0         0         0         0         0         0         0         0
         0         0         0         0         0         0         0         0
         0         0         0         0         0         0         0         0
         0         0         0         0         0         0         0         0
         0         0         0         0         0         0         0         0
         0         0         0         0         0         0         0         0
         0         0         0         0         0         0         0         0
         0         0         0         0         0         0         0         0
         0         0         0         0         0         0         0         0
         0         0         0         0         0         0         0         0
         0         0         0         0         0         0         0         0
         0         0         0         0         0         0         0         0
         0         0         0         0         0         0         0         0
         0         0         0         0         0         0         0         0
         0         0         0         0         0         0         0         0
         0         0         0         0         0         0         0         0
         0         0         0         0         0         0         0         0
         0         0         0         0         0         0         0         0
         0         0         0         0         0         0         0         0
         0         0         0         0         0         0         0         0
         0         0         0         0         0         0         0         0
         0         0         0         0         0         0         0         0
         0         0         0         0         0         0         0         0
         0         0         0         0         0         0         0         0
         0         0         0         0         0         0         0         0
         0         0         0         0         0         0         0         0
         0         0         0         0         0         0         0         0
         0         0         0         0         0         0         0         0
         0         0         0         0         0         0         0         0
         0         0         0         0         0         0         0         0
         0         0         0         0         0         0         0         0
         0         0         0         0         0         0         0         0
         0         0         0         0         0         0         0         0
         0         0         0         0         0         0         0         0
         0         0         0         0         0         0         0         0
         0         0         0         0         0         0         0         0
         0         0         0         0         0         0         0         0
         0         0         0         0         0         0         0         0
         0         0         0         0         0         0         0         0
         0         0         0         0         0         0         0         0
         0         0         0         0         0         0         0         0
         0         0         0         0         0         0         0         0
         0         0         0         0         0         0         0         0
         0         0         0         0         0         0         0         0
         0         0         0         0         0         0         0         0
         0         0         0         0         0         0         0         0
         0         0         0         0         0         0         0         0
         0         0         0         0         0         0         0         0
         0         0         0         0         0         0         0         0
         0         0         0         0         0         0         0         0
         0         0         0         0         0         0         0         0
         0         0         0         0         0         0         0         0
         0         0         0         0         0         0         0         0
         0         0         0         0         0         0         0         0
         0         0         0         0         0         0         0         0
         0         0         0         0         0         0         0         0
         0         0         0         0         0         0         0         0
         0         0         0         0         0         0         0         0
         0         0         0         0         0         0         0         0
         0         0         0         0         0         0         0         0
         0         0         0         0         0         0         0         0
         0         0         0         0         0         0         0         0
         0         0         0         0         0         0         0         0
         0         0         0         0         0         0         0         0
         0         0         0         0         0         0         0         0
         0         0         0         0         0         0         0         0
         0         0         0         0         0         0         0         0
         0         0         0         0         0         0         0         0
         0         0         0         0         0         0         0         0
         0         0         0         0         0         0         0         0
         0         0         0         0         0         0         0         0
         0         0         0         0         0         0         0         0
         0         0         0         0         0         0         0         0
         0         0         0         0         0         0         0         0
         0         0         0         0         0         0         0         0
         0         0         0         0         0         0         0         0
         0         0         0         0         0         0         0         0
         0         0         0         0         0         0         0         0
         0         0         0         0         0         0         0         0
         0         0         0         0         0         0         0         0
         0         0         0         0         0         0         0         0
         0         0         0         0         0         0         0         0
         0         0         0         0         0         0         0         0
         0         0         0         0         0         0         0         0
         0         0         0         0         0         0         0         0
         0         0         0         0         0         0         0         0
         0         0         0         0         0         0         0         0
         0         0         0         0         0         0         0         0
         0         0         0         0         0         0         0         0
         0         0         0         0         0         0         0         0
         0         0         0         0         0         0         0         0
         0         0         0         0         0         0         0         0
         0         0         0         0         0         0         0         0
         0         0         0         0         0         0         0         0
         0         0         0         0         0         0         0         0
         0         0         0         0         0         0         0         0
         0         0         0         0         0         0         0         0
         0         0         0         0         0         0         0         0
         0         0         0         0         0         0         0         0
         0         0         0         0         0         0         0         0
         0         0         0         0         0         0         0         0
         0         0         0         0         0         0         0         0
         0         0         0         0         0         0         0         0
         0         0         0         0         0         0         0         0
         0         0         0         0         0         0         0         0
         0         0         0         0         0         0         0         0
         0         0         0         0         0         0         0         0
         0         0         0         0         0         0         0         0
         0         0         0         0         0         0         0         0
         0         0         0         0         0         0         0         0
         0         0         0         0         0         0         0         0
         0         0         0         0         0         0         0         0
         0         0         0         0         0         0         0         0
         0         0         0         0         0         0         0         0
         0         0         0         0         0         0         0         0
         0         0         0         0         0         0         0         0
         0         0         0         0         0         0         0         0
         0         0         0         0         0         0         0         0
         0         0         0         0         0         0         0         0
         0         0         0         0         0         0         0         0
         0         0         0         0         0         0         0         0
         0         0         0         0         0         0         0         0
         0         0         0         0         0         0         0         0
         0         0         0         0         0         0         0         0
         0         0         0         0         0         0         0         0
         0         0         0         0         0         0         0         0
         0         0         0         0         0         0         0         0
         0         0         0         0         0         0         0         0
         0         0         0         0         0         0         0         0
         0         0         0         0         0         0         0         0
         0         0         0         0         0         0         0         0
         0         0         0         0         0         0         0         0
         0         0         0         0         0         0         0         0
         0         0         0         0         0         0         0         0
         0         0         0         0         0         0         0         0
         0         0         0         0         0         0         0         0
         0         0         0         0         0         0         0         0
         0         0         0         0         0         0         0         0
         0         0         0         0         0         0         0         0
         0         0         0         0         0         0         0         0
         0         0         0         0         0         0         0         0
         0         0         0         0         0         0         0         0
         0         0         0         0         0         0         0         0
         0         0         0         0         0         0         0         0
         0         0         0         0         0         0         0         0
         0         0         0         0         0         0         0         0
         0         0         0         0         0         0         0         0
         0         0         0         0         0         0         0         0
         0         0         0         0         0         0         0         0
         0         0         0         0         0         0         0         0
         0         0         0         0         0         0         0         0
         0         0         0         0         0         0         0         0
         0         0         0         0         0         0         0         0
         0         0         0         0         0         0         0         0
         0         0         0         0         0         0         0         0
         0         0         0         0         0         0         0         0
         0         0         0         0         0         0         0         0
         0         0         0         0         0         0         0         0
         0         0         0         0         0         0         0         0
         0         0         0         0         0         0         0         0
         0         0         0         0         0         0         0         0
         0         0         0         0         0         0         0         0
         0         0         0         0         0         0         0         0
         0         0         0         0         0         0         0         0
         0         0         0         0         0         0         0         0
         0         0         0         0         0         0         0         0
         0         0         0         0         0         0         0         0
         0         0         0         0         0         0         0         0
         0         0         0         0         0         0         0         0
         0         0         0         0         0         0         0         0
         0         0         0         0         0         0         0         0
         0         0         0         0         0         0         0         0
         0         0         0         0         0         0         0         0
         0         0         0         0         0         0         0         0
         0         0         0         0         0         0         0         0
         0         0         0         0         0         0         0         0
         0         0         0         0         0         0         0         0
         0         0         0         0         0         0         0         0
         0         0         0         0         0         0         0         0
         0         0         0         0         0         0         0         0
         0         0         0         0         0         0         0         0
         0         0         0         0         0         0         0         0
         0         0         0         0         0         0         0         0
         0         0         0         0         0         0         0         0
         0         0         0         0         0         0         0         0
         0         0         0         0         0         0         0         0
         0         0         0         0         0         0         0         0
         0         0         0         0         0         0         0         0
         0         0         0         0         0         0         0         0
         0         0         0         0         0         0         0         0
         0         0         0         0         0         0         0         0
         0         0         0         0         0         0         0         0
         0         0         0         0         0         0         0         0
         0         0         0         0         0         0         0         0
         0         0         0         0         0         0         0         0
         0         0         0         0         0         0         0         0
         0         0         0         0         0         0         0         0
         0         0         0         0         0         0         0         0
         0         0         0         0         0         0         0         0
         0         0         0         0         0         0         0         0
         0         0         0         0         0         0         0         0
         0         0         0         0         0         0         0         0
         0         0         0         0         0         0         0         0
         0         0         0         0         0         0         0         0
         0         0         0         0         0         0         0         0
         0         0         0         0         0         0         0         0
         0         0         0         0         0         0         0         0
         0         0         0         0         0         0         0         0
         0         0         0         0         0         0         0         0
         0         0         0         0         0         0         0         0
         0         0         0         0         0         0         0         0
         0         0         0         0         0         0         0         0
         0         0         0         0         0         0         0         0
         0         0         0         0         0         0         0         0
         0         0         0         0         0         0         0         0
         0         0         0         0         0         0         0         0
         0         0         0         0         0         0         0         0
         0         0         0         0         0         0         0         0
         0         0         0         0         0         0         0         0
         0         0         0         0         0         0         0         0
         0         0         0         0         0         0         0         0
         0         0         0         0         0         0         0         0
         0         0         0         0         0         0         0         0
         0         0         0         0         0         0         0         0
         0         0         0         0         0         0         0         0
         0         0         0         0         0         0         0         0
         0         0         0         0         0         0         0         0
         0         0         0         0         0         0         0         0
         0         0         0         0         0         0         0         0
         0         0         0         0         0         0         0         0
         0         0         0         0         0         0         0         0
         0         0         0         0         0         0         0         0
         0         0         0         0         0         0         0         0
         0         0         0         0         0         0         0         0
         0         0         0         0         0         0         0         0
         0         0         0         0         0         0         0         0
         0         0         0         0         0         0         0         0
         0         0         0         0         0         0         0         0
         0         0         0         0         0         0         0         0
         0         0         0         0         0         0         0         0
         0         0         0         0         0         0         0         0
         0         0         0         0         0         0         0         0
         0         0         0         0         0         0         0         0
         0         0         0         0         0         0         0         0
         0         0         0         0         0         0         0         0
         0         0         0         0         0         0         0         0
         0         0         0         0         0         0         0         0
         0         0         0         0         0         0         0         0
         0         0         0         0         0         0         0         0
         0         0         0         0         0         0         0         0
         0         0         0         0         0         0         0         0
         0         0         0         0         0         0         0         0
         0         0         0         0         0         0         0         0
         0         0         0         0         0         0         0         0
         0         0         0         0         0         0         0         0
         0         0         0         0         0         0         0         0
         0         0         0         0         0         0         0         0
         0         0         0         0         0         0         0         0
         0         0         0         0         0         0         0         0
         0         0         0         0         0         0         0         0
         0         0         0         0         0         0         0         0
         0         0         0         0         0         0         0         0
         0         0         0         0         0         0         0         0
         0         0         0         0         0         0         0         0
         0         0         0         0         0         0         0         0
         0         0         0         0         0         0         0         0
         0         0         0         0         0         0         0         0
         0         0         0         0         0         0         0         0
         0         0         0         0         0         0         0         0
         0         0         0         0         0         0         0         0
         0         0         0         0         0         0         0         0
         0         0         0         0         0         0         0         0
         0         0         0         0         0         0         0         0
         0         0         0         0         0         0         0         0
         0         0         0         0         0         0         0         0
         0         0         0         0         0         0         0         0
         0         0         0         0         0         0         0         0
         0         0         0         0         0         0         0         0
         0         0         0         0         0         0         0         0
         0         0         0         0         0         0         0         0
         0         0         0         0         0         0         0         0
         0         0         0         0         0         0         0         0
         0         0         0         0         0         0         0         0
         0         0         0         0         0         0         0         0
         0         0         0         0         0         0         0         0
         0         0         0         0         0         0         0         0
         0         0         0         0         0         0         0         0
         0         0         0         0         0         0         0         0
         0         0         0         0         0         0         0         0
         0         0         0         0         0         0         0         0
         0         0         0         0         0         0         0         0
         0         0         0         0         0         0         0         0
         0         0         0         0         0         0         0         0
         0         0         0         0         0         0         0         0
         0         0         0         0         0         0         0         0
         0         0         0         0         0         0         0         0
         0         0         0         0         0         0         0         0
         0         0         0         0         0         0         0         0
         0         0         0         0         0         0         0         0
         0         0         0         0         0         0         0         0
         0         0         0         0         0         0         0         0
         0         0         0         0         0         0         0         0
         0         0         0         0         0         0         0         0
         0         0         0         0         0         0         0         0
         0         0         0         0         0         0         0         0
         0         0         0         0         0         0         0         0
         0         0         0         0         0         0         0         0
         0         0         0         0         0         0         0         0
         0         0         0         0         0         0         0         0
         0         0         0         0         0         0         0         0
         0         0         0         0         0         0         0         0
         0         0         0         0         0         0         0         0
         0         0         0         0         0         0         0         0
         0         0         0         0         0         0         0         0
         0         0         0         0         0         0         0         0
         0         0         0         0         0         0         0         0
         0         0         0         0         0         0         0         0
         0         0         0         0         0         0         0         0
         0         0         0         0         0         0         0         0
         0         0         0         0         0         0         0         0
         0         0         0         0         0         0         0         0
         0         0         0         0         0         0         0         0
         0         0         0         0         0         0         0         0
         0         0         0         0         0         0         0         0
         0         0         0         0         0         0         0         0
         0         0         0         0         0         0         0         0
         0         0         0         0         0         0         0         0
         0         0         0         0         0         0         0         0
         0         0         0         0         0         0         0         0
         0         0         0         0         0         0         0         0
         0         0         0         0         0         0         0         0
         0         0         0         0         0         0         0         0
         0         0         0         0         0         0         0         0
         0         0         0         0         0         0         0         0
         0         0         0         0         0         0         0         0
         0         0         0         0         0         0         0         0
         0         0         0         0         0         0         0         0
         0         0         0         0         0         0         0         0
         0         0         0         0         0         0         0         0
         0         0         0         0         0         0         0         0
         0         0         0         0         0         0         0         0
         0         0         0         0         0         0         0         0
         0         0         0         0         0         0         0         0
         0         0         0         0         0         0         0         0
         0         0         0         0         0         0         0         0
         0         0         0         0         0         0         0         0
         0         0         0         0         0         0         0         0
         0         0         0         0         0         0         0         0
         0         0         0         0         0         0         0         0
         0         0         0         0         0         0         0         0
         0         0         0         0         0         0         0         0
         0         0         0         0         0         0         0         0
         0         0         0         0         0         0         0         0
         0         0         0         0         0         0         0         0
         0         0         0         0         0         0         0         0
         0         0         0         0         0         0         0         0
         0         0         0         0         0         0         0         0
         0         0         0         0         0         0         0         0
         0         0         0         0         0         0         0         0
         0         0         0         0         0         0         0         0
         0         0         0         0         0         0         0         0
         0         0         0         0         0         0         0         0
         0         0         0         0         0         0         0         0
         0         0         0         0         0         0         0         0
         0         0         0         0         0         0         0         0
         0         0         0         0         0         0         0         0
         0         0         0         0         0         0         0         0
         0         0         0         0         0         0         0         0
         0         0         0         0         0         0         0         0
         0         0         0         0         0         0         0         0
         0         0         0         0         0         0         0         0
         0         0         0         0         0         0         0         0
         0         0         0         0         0         0         0         0
         0         0         0         0         0         0         0         0
         0         0         0         0         0         0         0         0
         0         0         0         0         0         0         0         0
         0         0         0         0         0         0         0         0
         0         0         0         0         0         0         0         0
         0         0         0         0         0         0         0         0
         0         0         0         0         0         0         0         0
         0         0         0         0         0         0         0         0
         0         0         0         0         0         0         0         0
         0         0         0         0         0         0         0         0
         0         0         0         0         0         0         0         0
         0         0         0         0         0         0         0         0
         0         0         0         0         0         0         0         0
         0         0         0         0         0         0         0         0
         0         0         0         0         0         0         0         0
         0         0         0         0         0         0         0         0
         0         0         0         0         0         0         0         0
         0         0         0         0         0         0         0         0
         0         0         0         0         0         0         0         0
         0         0         0         0         0         0         0         0
         0         0         0         0         0         0         0         0
         0         0         0         0         0         0         0         0
         0         0         0         0         0         0         0         0
         0         0         0         0         0         0         0         0
         0         0         0         0         0         0         0         0
         0         0         0         0         0         0         0         0
         0         0         0         0         0         0         0         0
         0         0         0         0         0         0         0         0
         0         0         0         0         0         0         0         0
         0         0         0         0         0         0         0         0
         0         0         0         0         0         0         0         0
         0         0         0         0         0         0         0         0
         0         0         0         0         0         0         0         0
         0         0         0         0         0         0         0         0
         0         0         0         0         0         0         0         0
         0         0         0         0         0         0         0         0
         0         0         0         0         0         0         0         0
         0         0         0         0         0         0         0         0
         0         0         0         0         0         0         0         0
         0         0         0         0         0         0         0         0
         0         0         0         0         0         0         0         0
         0         0         0         0         0         0         0         0
         0         0         0         0         0         0         0         0
         0         0         0         0         0         0         0         0
         0         0         0         0         0         0         0         0
         0         0         0         0         0         0         0         0
         0         0         0         0         0         0         0         0
         0         0         0         0         0         0         0         0
         0         0         0         0         0         0         0         0
         0         0         0         0         0         0         0         0
         0         0         0         0         0         0         0         0
         0         0         0         0         0         0         0         0
         0         0         0         0         0         0         0         0
         0         0         0         0         0         0         0         0
         0         0         0         0         0         0         0         0
         0         0         0         0         0         0         0         0
         0         0         0         0         0         0         0         0
         0         0         0         0         0         0         0         0
         0         0         0         0         0         0         0         0
         0         0         0         0         0         0         0         0
         0         0         0         0         0         0         0         0
         0         0         0         0         0         0         0         0
         0         0         0         0         0         0         0         0
         0         0         0         0         0         0         0         0
         0         0         0         0         0         0         0         0
         0         0         0         0         0         0         0         0
         0         0         0         0         0         0         0         0
         0         0         0         0         0         0         0         0
         0         0         0         0         0         0         0         0
         0         0         0         0         0         0         0         0
         0         0         0         0         0         0         0         0
         0         0         0         0         0         0         0         0
         0         0         0         0         0         0         0         0
         0         0         0         0         0         0         0         0
         0         0         0         0         0         0         0         0
         0         0         0         0         0         0         0         0
         0         0         0         0         0         0         0         0
         0         0         0         0         0         0         0         0
         0         0         0         0         0         0         0         0
         0         0         0         0         0         0         0         0
         0         0         0         0         0         0         0         0
         0         0         0         0         0         0         0         0
         0         0         0         0         0         0         0         0
         0         0         0         0         0         0         0         0
         0         0         0         0         0         0         0         0
         0         0         0         0         0         0         0         0
         0         0         0         0         0         0         0         0
         0         0         0         0         0         0         0         0
         0         0         0         0         0         0         0         0
         0         0         0         0         0         0         0         0
         0         0         0         0         0         0         0         0
         0         0         0         0         0         0         0         0
         0         0         0         0         0         0         0         0
         0         0         0         0         0         0         0         0
         0         0         0         0         0         0         0         0
         0         0         0         0         0         0         0         0
         0         0         0         0         0         0         0         0
         0         0         0         0         0         0         0         0
         0         0         0         0         0         0         0         0
         0         0         0         0         0         0         0         0
         0         0         0         0         0         0         0         0
         0         0         0         0         0         0         0         0
         0         0         0         0         0         0         0         0
         0         0         0         0         0         0         0         0
         0         0         0         0         0         0         0         0
         0         0         0         0         0         0         0         0
         0         0         0         0         0         0         0         0
         0         0         0         0         0         0         0         0
         0         0         0         0         0         0         0         0
         0         0         0         0         0         0         0         0
         0         0         0         0         0         0         0         0
         0         0         0         0         0         0         0         0
         0         0         0         0         0         0         0         0
         0         0         0         0         0         0         0         0
         0         0         0         0         0         0         0         0
         0         0         0         0         0         0         0         0
         0         0         0         0         0         0         0         0
         0         0         0         0         0         0         0         0
         0         0         0         0         0         0         0         0
         0         0         0         0         0         0         0         0
         0         0         0         0         0         0         0         0
         0         0         0         0         0         0         0         0
         0         0         0         0         0         0         0         0
         0         0         0         0         0         0         0         0
         0         0         0         0         0         0         0         0
         0         0         0         0         0         0         0         0
         0         0         0         0         0         0         0         0
         0         0         0         0         0         0         0         0
         0         0         0         0         0         0         0         0
         0         0         0         0         0         0         0         0
         0         0         0         0         0         0         0         0
         0         0         0         0         0         0         0         0
         0         0         0         0         0         0         0         0
         0         0         0         0         0         0         0         0
         0         0         0         0         0         0         0         0
         0         0         0         0         0         0         0         0
         0         0         0         0         0         0         0         0
         0         0         0         0         0         0         0         0
         0         0         0         0         0         0         0         0
         0         0         0         0         0         0         0         0
         0         0         0         0         0         0         0         0
         0         0         0         0         0         0         0         0
         0         0         0         0         0         0         0         0
         0         0         0         0         0         0         0         0
         0         0         0         0         0         0         0         0
         0         0         0         0         0         0         0         0
         0         0         0         0         0         0         0         0
         0         0         0         0         0         0         0         0
         0         0         0         0         0         0         0         0
         0         0         0         0         0         0         0         0
         0         0         0         0         0         0         0         0
         0         0         0         0         0         0         0         0
         0         0         0         0         0         0         0         0
         0         0         0         0         0         0         0         0
         0         0         0         0         0         0         0         0
         0         0         0         0         0         0         0         0
         0         0         0         0         0         0         0         0
         0         0         0         0         0         0         0         0
         0         0         0         0         0         0         0         0
         0         0         0         0         0         0         0         0
         0         0         0         0         0         0         0         0
         0         0         0         0         0         0         0         0
         0         0         0         0         0         0         0         0
         0         0         0         0         0         0         0         0
         0         0         0         0         0         0         0         0
         0         0         0         0         0         0         0         0
         0         0         0         0         0         0         0         0
         0         0         0         0         0         0         0         0
         0         0         0         0         0         0         0         0
         0         0         0         0         0         0         0         0
         0         0         0         0         0         0         0         0
         0         0         0         0         0         0         0         0
         0         0         0         0         0         0         0         0
         0         0         0         0         0         0         0         0
         0         0         0         0         0         0         0         0
         0         0         0         0         0         0         0         0
         0         0         0         0         0         0         0         0
         0         0         0         0         0         0         0         0
         0         0         0         0         0         0         0         0
         0         0         0         0         0         0         0         0
         0         0         0         0         0         0         0         0
         0         0         0         0         0         0         0         0
         0         0         0         0         0         0         0         0
         0         0         0         0         0         0         0         0
         0         0         0         0         0         0         0         0
         0         0         0         0         0         0         0         0
         0         0         0         0         0         0         0         0
         0         0         0         0         0         0         0         0
         0         0         0         0         0         0         0         0
         0         0         0         0         0         0         0         0
         0         0         0         0         0         0         0         0
         0         0         0         0         0         0         0         0
         0         0         0         0         0         0         0         0
         0         0         0         0         0         0         0         0
         0         0         0         0         0         0         0         0
         0         0         0         0         0         0         0         0
         0         0         0         0         0         0         0         0
         0         0         0         0         0         0         0         0
         0         0         0         0         0         0         0         0
         0         0         0         0         0         0         0         0
         0         0         0         0         0         0         0         0
         0         0         0         0         0         0         0         0
         0         0         0         0         0         0         0         0
         0         0         0         0         0         0         0         0
         0         0         0         0         0         0         0         0
         0         0         0         0         0         0         0         0
         0         0         0         0         0         0         0         0
         0         0         0         0         0         0         0         0
         0         0         0         0         0         0         0         0
         0         0         0         0         0         0         0         0
         0         0         0         0         0         0         0         0
         0         0         0         0         0         0         0         0
         0         0         0         0         0         0         0         0
         0         0         0         0         0         0         0         0
         0         0         0         0         0         0         0         0
         0         0         0         0         0         0         0         0
         0         0         0         0         0         0         0         0
         0         0         0         0         0         0         0         0
         0         0         0         0         0         0         0         0
         0         0         0         0         0         0         0         0
         0         0         0         0         0         0         0         0
         0         0         0         0         0         0         0         0
         0         0         0         0         0         0         0         0
         0         0         0         0         0         0         0         0
         0         0         0         0         0         0         0         0
         0         0         0         0         0         0         0         0
         0         0         0         0         0         0         0         0
         0         0         0         0         0         0         0         0
         0         0         0         0         0         0         0         0
         0         0         0         0         0         0         0         0
         0         0         0         0         0         0         0         0
         0         0         0         0         0         0         0         0
         0         0         0         0         0         0         0         0
         0         0         0         0         0         0         0         0
         0         0         0         0         0         0         0         0
         0         0         0         0         0         0         0         0
         0         0         0         0         0         0         0         0
         0         0         0         0         0         0         0         0
         0         0         0         0         0         0         0         0
         0         0         0         0         0         0         0         0
         0         0         0         0         0         0         0         0
         0         0         0         0         0         0         0         0
         0         0         0         0         0         0         0         0
         0         0         0         0         0         0         0         0
         0         0         0         0         0         0         0         0
         0         0         0         0         0         0         0         0
         0         0         0         0         0         0         0         0
         0         0         0         0         0         0         0         0
         0         0         0         0         0         0         0         0
         0         0         0         0         0         0         0         0
         0         0         0         0         0         0         0         0
         0         0         0         0         0         0         0         0
         0         0         0         0         0         0         0         0
         0         0         0         0         0         0         0         0
         0         0         0         0         0         0         0         0
         0         0         0         0         0         0         0         0
         0         0         0         0         0         0         0         0
         0         0         0         0         0         0         0         0
         0         0         0         0         0         0         0         0
         0         0         0         0         0         0         0         0
         0         0         0         0         0         0         0         0
         0         0         0         0         0         0         0         0
         0         0         0         0         0         0         0         0
         0         0         0         0         0         0         0         0
         0         0         0         0         0         0         0         0
         0         0         0         0         0         0         0         0
         0         0         0         0         0         0         0         0
         0         0         0         0         0         0         0         0
         0         0         0         0         0         0         0         0
         0         0         0         0         0         0         0         0
         0         0         0         0         0         0         0         0
         0         0         0         0         0         0         0         0
         0         0         0         0         0         0         0         0
         0         0         0         0         0         0         0         0
         0         0         0         0         0         0         0         0
         0         0         0         0         0         0         0         0
         0         0         0         0         0         0         0         0
         0         0         0         0         0         0         0         0
         0         0         0         0         0         0         0         0
         0         0         0         0         0         0         0         0
         0         0         0         0         0         0         0         0
         0         0         0         0         0         0         0         0
         0         0         0         0         0         0         0         0
         0         0         0         0         0         0         0         0
         0         0         0         0         0         0         0         0
         0         0         0         0         0         0         0         0
         0         0         0         0         0         0         0         0
         0         0         0         0         0         0         0         0
         0         0         0         0         0         0         0         0
         0         0         0         0         0         0         0         0
         0         0         0         0         0         0         0         0
         0         0         0         0         0         0         0         0
         0         0         0         0         0         0         0         0
         0         0         0         0         0         0         0         0
         0         0         0         0         0         0         0         0
         0         0         0         0         0         0         0         0
         0         0         0         0         0         0         0         0
         0         0         0         0         0         0         0         0
         0         0         0         0         0         0         0         0
         0         0         0         0         0         0         0         0
         0         0         0         0         0         0         0         0
         0         0         0         0         0         0         0         0
         0         0         0         0         0         0         0         0
         0         0         0         0         0         0         0         0
         0         0         0         0         0         0         0         0
         0         0         0         0         0         0         0         0
         0         0         0         0         0         0         0         0
         0         0         0         0         0         0         0         0
         0         0         0         0         0         0         0         0
         0         0         0         0         0         0         0         0
         0         0         0         0         0         0         0         0
         0         0         0         0         0         0         0         0
         0         0         0         0         0         0         0         0
         0         0         0         0         0         0         0         0
         0         0         0         0         0         0         0         0
         0         0         0         0         0         0         0         0
         0         0         0         0         0         0         0         0
         0         0         0         0         0         0         0         0
         0         0         0         0         0         0         0         0
         0         0         0         0         0         0         0         0
         0         0         0         0         0         0         0         0
         0         0         0         0         0         0         0         0
         0         0         0         0         0         0         0         0
         0         0         0         0         0         0         0         0
         0         0         0         0         0         0         0         0
         0         0         0         0         0         0         0         0
         0         0         0         0         0         0         0         0
         0         0         0         0         0         0         0         0
         0         0         0         0         0         0         0         0
         0         0         0         0         0         0         0         0
         0         0         0         0         0         0         0         0
         0         0         0         0         0         0         0         0
         0         0         0         0         0         0         0         0
         0         0         0         0         0         0         0         0
         0         0         0         0         0         0         0         0
         0         0         0         0         0         0         0         0
         0         0         0         0         0         0         0         0
         0         0         0         0         0         0         0         0
         0         0         0         0         0         0         0         0
         0         0         0         0         0         0         0         0
         0         0         0         0         0         0         0         0
         0         0         0         0         0         0         0         0
         0         0         0         0         0         0         0         0
         0         0         0         0         0         0         0         0
         0         0         0         0         0         0         0         0
         0         0         0         0         0         0         0         0
         0         0         0         0         0         0         0         0
         0         0         0         0         0         0         0         0
         0         0         0         0         0         0         0         0
         0         0         0         0         0         0         0         0
         0         0         0         0         0         0         0         0
         0         0         0         0         0         0         0         0
         0         0         0         0         0         0         0         0
         0         0         0         0         0         0         0         0
         0         0         0         0         0         0         0         0
         0         0         0         0         0         0         0         0
         0         0         0         0         0         0         0         0
         0         0         0         0         0         0         0         0
         0         0         0         0         0         0         0         0
         0         0         0         0         0         0         0         0
         0         0         0         0         0         0         0         0
         0         0         0         0         0         0         0         0
         0         0         0         0         0         0         0         0
         0         0         0         0         0         0         0         0
         0         0         0         0         0         0         0         0
         0         0         0         0         0         0         0         0
         0         0         0         0         0         0         0         0
         0         0         0         0         0         0         0         0
         0         0         0         0         0         0         0         0
         0         0         0         0         0         0         0         0
         0         0         0         0         0         0         0         0
         0         0         0         0         0         0         0         0
         0         0         0         0         0         0         0         0
         0         0         0         0         0         0         0         0
         0         0         0         0         0         0         0         0
         0         0         0         0         0         0         0         0
         0         0         0         0         0         0         0         0
         0         0         0         0         0         0         0         0
         0         0         0         0         0         0         0         0
         0         0         0         0         0         0         0         0
         0         0         0         0         0         0         0         0
         0         0         0         0         0         0         0         0
         0         0         0         0         0         0         0         0
         0         0         0         0         0         0         0         0
         0         0         0         0         0         0         0         0
         0         0         0         0         0         0         0         0
         0         0         0         0         0         0         0         0
         0         0         0         0         0         0         0         0
         0         0         0         0         0         0         0         0
         0         0         0         0         0         0         0         0
         0         0         0         0         0         0         0         0
         0         0         0         0         0         0         0         0
         0         0         0         0         0         0         0         0
         0         0         0         0         0         0         0         0
         0         0         0         0         0         0         0         0
         0         0         0         0         0         0         0         0
         0         0         0         0         0         0         0         0
         0         0         0         0         0         0         0         0
         0         0         0         0         0         0         0         0
         0         0         0         0         0         0         0         0
         0         0         0         0         0         0         0         0
         0         0         0         0         0         0         0         0
         0         0         0         0         0         0         0         0
         0         0         0         0         0         0         0         0
         0         0         0         0         0         0         0         0
         0         0         0         0         0         0         0         0
         0         0         0         0         0         0         0         0
         0         0         0         0         0         0         0         0
         0         0         0         0         0         0         0         0
         0         0         0         0         0         0         0         0
         0         0         0         0         0         0         0         0
         0         0         0         0         0         0         0         0
         0         0         0         0         0         0         0         0
         0         0         0         0         0         0         0         0
         0         0         0         0         0         0         0         0
         0         0         0         0         0         0         0         0
         0         0         0         0         0         0         0         0
         0         0         0         0         0         0         0         0
         0         0         0         0         0         0         0         0
         0         0         0         0         0         0         0         0
         0         0         0         0         0         0         0         0
         0         0         0         0         0         0         0         0
         0         0         0         0         0         0         0         0
         0         0         0         0         0         0         0         0
         0         0         0         0         0         0         0         0
         0         0         0         0         0         0         0         0
         0         0         0         0         0         0         0         0
         0         0         0         0         0         0         0         0
         0         0         0         0         0         0         0         0
         0         0         0         0         0         0         0         0
         0         0         0         0         0         0         0         0
         0         0         0         0         0         0         0         0
         0         0         0         0         0         0         0         0
         0         0         0         0         0         0         0         0
         0         0         0         0         0         0         0         0
         0         0         0         0         0         0         0         0
         0         0         0         0         0         0         0         0
         0         0         0         0         0         0         0         0
         0         0         0         0         0         0         0         0
         0         0         0         0         0         0         0         0
         0         0         0         0         0         0         0         0
         0         0         0         0         0         0         0         0
         0         0         0         0         0         0         0         0
         0         0         0         0         0         0         0         0
         0         0         0         0         0         0         0         0
         0         0         0         0         0         0         0         0
         0         0         0         0         0         0         0         0
         0         0         0         0         0         0         0         0
         0         0         0         0         0         0         0         0
         0         0         0         0         0         0         0         0
         0         0         0         0         0         0         0         0
         0         0         0         0         0         0         0         0
         0         0         0         0         0         0         0         0
         0         0         0         0         0         0         0         0
         0         0         0         0         0         0         0         0
         0         0         0         0         0         0         0         0
         0         0         0         0         0         0         0         0
         0         0         0         0         0         0         0         0
         0         0         0         0         0         0         0         0
         0         0         0         0         0         0         0         0
         0         0         0         0         0         0         0         0
         0         0         0         0         0         0         0         0
         0         0         0         0         0         0         0         0
         0         0         0         0         0         0         0         0
         0         0         0         0         0         0         0         0
         0         0         0         0         0         0         0         0
         0         0         0         0         0         0         0         0
         0         0         0         0         0         0         0         0
         0         0         0         0         0         0         0         0
         0         0         0         0         0         0         0         0
         0         0         0         0         0         0         0         0
         0         0         0         0         0         0         0         0
         0         0         0         0         0         0         0         0
         0         0         0         0         0         0         0         0
         0         0         0         0         0         0         0         0
         0         0         0         0         0         0         0         0
         0         0         0         0         0         0         0         0
         0         0         0         0         0         0         0         0
         0         0         0         0         0         0         0         0
         0         0         0         0         0         0         0         0
         0         0         0         0         0         0         0         0
         0         0         0         0         0         0         0         0
         0         0         0         0         0         0         0         0
         0         0         0         0         0         0         0         0
         0         0         0         0         0         0         0         0
         0         0         0         0         0         0         0         0
         0         0         0         0         0         0         0         0
         0         0         0         0         0         0         0         0
         0         0         0         0         0         0         0         0
         0         0         0         0         0         0         0         0
         0         0         0         0         0         0         0         0
         0         0         0         0         0         0         0         0
         0         0         0         0         0         0         0         0
         0         0         0         0         0         0         0         0
         0         0         0         0         0         0         0         0
         0         0         0         0         0         0         0         0
         0         0         0         0         0         0         0         0
         0         0         0         0         0         0         0         0
         0         0         0         0         0         0         0         0
         0         0         0         0         0         0         0         0
         0         0         0         0         0         0         0         0
         0         0         0         0         0         0         0         0
         0         0         0         0         0         0         0         0
         0         0         0         0         0         0         0         0
         0         0         0         0         0         0         0         0
         0         0         0         0         0         0         0         0
         0         0         0         0         0         0         0         0
         0         0         0         0         0         0         0         0
         0         0         0         0         0         0         0         0
         0         0         0         0         0         0         0         0
         0         0         0         0         0         0         0         0
         0         0         0         0         0         0         0         0
         0         0         0         0         0         0         0         0
         0         0         0         0         0         0         0         0
         0         0         0         0         0         0         0         0
         0         0         0         0         0         0         0         0
         0         0         0         0         0         0         0         0
         0         0         0         0         0         0         0         0
         0         0         0         0         0         0         0         0
         0         0         0         0         0         0         0         0
         0         0         0         0         0         0         0         0
         0         0         0         0         0         0         0         0
         0         0         0         0         0         0         0         0
         0         0         0         0         0         0         0         0
         0         0         0         0         0         0         0         0
         0         0         0         0         0         0         0         0
         0         0         0         0         0         0         0         0
         0         0         0         0         0         0         0         0
         0         0         0         0         0         0         0         0
         0         0         0         0         0         0         0         0
         0         0         0         0         0         0         0         0
         0         0         0         0         0         0         0         0
         0         0         0         0         0         0         0         0
         0         0         0         0         0         0         0         0
         0         0         0         0         0         0         0         0
         0         0         0         0         0         0         0         0
         0         0         0         0         0         0         0         0
         0         0         0         0         0         0         0         0
         0         0         0         0         0         0         0         0
         0         0         0         0         0         0         0         0
         0         0         0         0         0         0         0         0
         0         0         0         0         0         0         0         0
         0         0         0         0         0         0         0         0
         0         0         0         0         0         0         0         0
         0         0         0         0         0         0         0         0
         0         0         0         0         0         0         0         0
         0         0         0         0         0         0         0         0
         0         0         0         0         0         0         0         0
         0         0         0         0         0         0         0         0
         0         0         0         0         0         0         0         0
         0         0         0         0         0         0         0         0
         0         0         0         0         0         0         0         0
         0         0         0         0         0         0         0         0
         0         0         0         0         0         0         0         0
         0         0         0         0         0         0         0         0
         0         0         0         0         0         0         0         0
         0         0         0         0         0         0         0         0
         0         0         0         0         0         0         0         0
         0         0         0         0         0         0         0         0
         0         0         0         0         0         0         0         0
         0         0         0         0         0         0         0         0
         0         0         0         0         0         0         0         0
         0         0         0         0         0         0         0         0
         0         0         0         0         0         0         0         0
         0         0         0         0         0         0         0         0
         0         0         0         0         0         0         0         0
         0         0         0         0         0         0         0         0
         0         0         0         0         0         0         0         0
         0         0         0         0         0         0         0         0
         0         0         0         0         0         0         0         0
         0         0         0         0         0         0         0         0
         0         0         0         0         0         0         0         0
         0         0         0         0         0         0         0         0
         0         0         0         0         0         0         0         0
         0         0         0         0         0         0         0         0
         0         0         0         0         0         0         0         0
         0         0         0         0         0         0         0         0
         0         0         0         0         0         0         0         0
         0         0         0         0         0         0         0         0
         0         0         0         0         0         0         0         0
         0         0         0         0         0         0         0         0
         0         0         0         0         0         0         0         0
         0         0         0         0         0         0         0         0
         0         0         0         0         0         0         0         0
         0         0         0         0         0         0         0         0
         0         0         0         0         0         0         0         0
         0         0         0         0         0         0         0         0
         0         0         0         0         0         0         0         0
         0         0         0         0         0         0         0         0
         0         0         0         0         0         0         0         0
         0         0         0         0         0         0         0         0
         0         0         0         0         0         0         0         0
         0         0         0         0         0         0         0         0
         0         0         0         0         0         0         0         0
         0         0         0         0         0         0         0         0
         0         0         0         0         0         0         0         0
         0         0         0         0         0         0         0         0
         0         0         0         0         0         0         0         0
         0         0         0         0         0         0         0         0
         0         0         0         0         0         0         0         0
         0         0         0         0         0         0         0         0
         0         0         0         0         0         0         0         0
         0         0         0         0         0         0         0         0
         0         0         0         0         0         0         0         0
         0         0         0         0         0         0         0         0
         0         0         0         0         0         0         0         0
         0         0         0         0         0         0         0         0
         0         0         0         0         0         0         0         0
         0         0         0         0         0         0         0         0
         0         0         0         0         0         0         0         0
         0         0         0         0         0         0         0         0
         0         0         0         0         0         0         0         0
         0         0         0         0         0         0         0         0
         0         0         0         0         0         0         0         0
         0         0         0         0         0         0         0         0
         0         0         0         0         0         0         0         0
         0         0         0         0         0         0         0         0
         0         0         0         0         0         0         0         0
         0         0         0         0         0         0         0         0
         0         0         0         0         0         0         0         0
         0         0         0         0         0         0         0         0
         0         0         0         0         0         0         0         0
         0         0         0         0         0         0         0         0
         0         0         0         0         0         0         0         0
         0         0         0         0         0         0         0         0
         0         0         0         0         0         0         0         0
         0         0         0         0         0         0         0         0
         0         0         0         0         0         0         0         0
         0         0         0         0         0         0         0         0
         0         0         0         0         0         0         0         0
         0         0         0         0         0         0         0         0
         0         0         0         0         0         0         0         0
         0         0         0         0         0         0         0         0
         0         0         0         0         0         0         0         0
         0         0         0         0         0         0         0         0
         0         0         0         0         0         0         0         0
         0         0         0         0         0         0         0         0
         0         0         0         0         0         0         0         0
         0         0         0         0         0         0         0         0
         0         0         0         0         0         0         0         0
         0         0         0         0         0         0         0         0
         0         0         0         0         0         0         0         0
         0         0         0         0         0         0         0         0
         0         0         0         0         0         0         0         0
         0         0         0         0         0         0         0         0
         0         0         0         0         0         0         0         0
         0         0         0         0         0         0         0         0
         0         0         0         0         0         0         0         0
         0         0         0         0         0         0         0         0
         0         0         0         0         0         0         0         0
         0         0         0         0         0         0         0         0
         0         0         0         0         0         0         0         0
         0         0         0         0         0         0         0         0
         0         0         0         0         0         0         0         0
         0         0         0         0         0         0         0         0
         0         0         0         0         0         0         0         0
         0         0         0         0         0         0         0         0
         0         0         0         0         0         0         0         0
         0         0         0         0         0         0         0         0
         0         0         0         0         0         0         0         0
         0         0         0         0         0         0         0         0
         0         0         0         0         0         0         0         0
         0         0         0         0         0         0         0         0
         0         0         0         0         0         0         0         0
         0         0         0         0         0         0         0         0
         0         0         0         0         0         0         0         0
         0         0         0         0         0         0         0         0
         0         0         0         0         0         0         0         0
         0         0         0         0         0         0         0         0
         0         0         0         0         0         0         0         0
         0         0         0         0         0         0         0         0
         0         0         0         0         0         0         0         0
         0         0         0         0         0         0         0         0
         0         0         0         0         0         0         0         0
         0         0         0         0         0         0         0         0
         0         0         0         0         0         0         0         0
         0         0         0         0         0         0         0         0
         0         0         0         0         0         0         0         0
         0         0         0         0         0         0         0         0
         0         0         0         0         0         0         0         0
         0         0         0         0         0         0         0         0
         0         0         0         0         0         0         0         0
         0         0         0         0         0         0         0         0
         0         0         0         0         0         0         0         0
         0         0         0         0         0         0         0         0
         0         0         0         0         0         0         0         0
         0         0         0         0         0         0         0         0
         0         0         0         0         0         0         0         0
         0         0         0         0         0         0         0         0
         0         0         0         0         0         0         0         0
         0         0         0         0         0         0         0         0
         0         0         0         0         0         0         0         0
         0         0         0         0         0         0         0         0
         0         0         0         0         0         0         0         0
         0         0         0         0         0         0         0         0
         0         0         0         0         0         0         0         0
         0         0         0         0         0         0         0         0
         0         0         0         0         0         0         0         0
         0         0         0         0         0         0         0         0
         0         0         0         0         0         0         0         0
         0         0         0         0         0         0         0         0
         0         0         0         0         0         0         0         0
         0         0         0         0         0         0         0         0
         0         0         0         0         0         0         0         0
         0         0         0         0         0         0         0         0
         0         0         0         0         0         0         0         0
         0         0         0         0         0         0         0         0
         0         0         0         0         0         0         0         0
         0         0         0         0         0         0         0         0
         0         0         0         0         0         0         0         0
         0         0         0         0         0         0         0         0
         0         0         0         0         0         0         0         0
         0         0         0         0         0         0         0         0
         0         0         0         0         0         0         0         0
         0         0         0         0         0         0         0         0
         0         0         0         0         0         0         0         0
         0         0         0         0         0         0         0         0
         0         0         0         0         0         0         0         0
         0         0         0         0         0         0         0         0
         0         0         0         0         0         0         0         0
         0         0         0         0         0         0         0         0
         0         0         0         0         0         0         0         0
         0         0         0         0         0         0         0         0
         0         0         0         0         0         0         0         0
         0         0         0         0         0         0         0         0
         0         0         0         0         0         0         0         0
         0         0         0         0         0         0         0         0
         0         0         0         0         0         0         0         0
         0         0         0         0         0         0         0         0
         0         0         0         0         0         0         0         0
         0         0         0         0         0         0         0         0
         0         0         0         0         0         0         0         0
         0         0         0         0         0         0         0         0
         0         0         0         0         0         0         0         0
         0         0         0         0         0         0         0         0
         0         0         0         0         0         0         0         0
         0         0         0         0         0         0         0         0
         0         0         0         0         0         0         0         0
         0         0         0         0         0         0         0         0
         0         0         0         0         0         0         0         0
         0         0         0         0         0         0         0         0
         0         0         0         0         0         0         0         0
         0         0         0         0         0         0         0         0
         0         0         0         0         0         0         0         0
         0         0         0         0         0         0         0         0
         0         0         0         0         0         0         0         0
         0         0         0         0         0         0         0         0
         0         0         0         0         0         0         0         0
         0         0         0         0         0         0         0         0
         0         0         0         0         0         0         0         0
         0         0         0         0         0         0         0         0
         0         0         0         0         0         0         0         0
         0         0         0         0         0         0         0         0
         0         0         0         0         0         0         0         0
         0         0         0         0         0         0         0         0
         0         0         0         0         0         0         0         0
         0         0         0         0         0         0         0         0
         0         0         0         0         0         0         0         0
         0         0         0         0         0         0         0         0
         0         0         0         0         0         0         0         0
         0         0         0         0         0         0         0         0
         0         0         0         0         0         0         0         0
         0         0         0         0         0         0         0         0
         0         0         0         0         0         0         0         0
         0         0         0         0         0         0         0         0
         0         0         0         0         0         0         0         0
         0         0         0         0         0         0         0         0
         0         0         0         0         0         0         0         0
         0         0         0         0         0         0         0         0
         0         0         0         0         0         0         0         0
         0         0         0         0         0         0         0         0
         0         0         0         0         0         0         0         0
         0         0         0         0         0         0         0         0
         0         0         0         0         0         0         0         0
         0         0         0         0         0         0         0         0
         0         0         0         0         0         0         0         0
         0         0         0         0         0         0         0         0
         0         0         0         0         0         0         0         0
         0         0         0         0         0         0         0         0
         0         0         0         0         0         0         0         0
         0         0         0         0         0         0         0         0
         0         0         0         0         0         0         0         0
         0         0         0         0         0         0         0         0
         0         0         0         0         0         0         0         0
         0         0         0         0         0         0         0         0
         0         0         0         0         0         0         0         0
         0         0         0         0         0         0         0         0
         0         0         0         0         0         0         0         0
         0         0         0         0         0         0         0         0
         0         0         0         0         0         0         0         0
         0         0         0         0         0         0         0         0
         0         0         0         0         0         0         0         0
         0         0         0         0         0         0         0         0
         0         0         0         0         0         0         0         0
         0         0         0         0         0         0         0         0
         0         0         0         0         0         0         0         0
         0         0         0         0         0         0         0         0
         0         0         0         0         0         0         0         0
         0         0         0         0         0         0         0         0
         0         0         0         0         0         0         0         0
         0         0         0         0         0         0         0         0
         0         0         0         0         0         0         0         0
         0         0         0         0         0         0         0         0
         0         0         0         0         0         0         0         0
         0         0         0         0         0         0         0         0
         0         0         0         0         0         0         0         0
         0         0         0         0         0         0         0         0
         0         0         0         0         0         0         0         0
         0         0         0         0         0         0         0         0
         0         0         0         0         0         0         0         0
         0         0         0         0         0         0         0         0
         0         0         0         0         0         0         0         0
         0         0         0         0         0         0         0         0
         0         0         0         0         0         0         0         0
         0         0         0         0         0         0         0         0
         0         0         0         0         0         0         0         0
         0         0         0         0         0         0         0         0
         0         0         0         0         0         0         0         0
         0         0         0         0         0         0         0         0
         0         0         0         0         0         0         0         0
         0         0         0         0         0         0         0         0
         0         0         0         0         0         0         0         0
         0         0         0         0         0         0         0         0
         0         0         0         0         0         0         0         0
         0         0         0         0         0         0         0         0
         0         0         0         0         0         0         0         0
         0         0         0         0         0         0         0         0
         0         0         0         0         0         0         0         0
         0         0         0         0         0         0         0         0
         0         0         0         0         0         0         0         0
         0         0         0         0         0         0         0         0
         0         0         0         0         0         0         0         0
         0         0         0         0         0         0         0         0
         0         0         0         0         0         0         0         0
         0         0         0         0         0         0         0         0
         0         0         0         0         0         0         0         0
         0         0         0         0         0         0         0         0
         0         0         0         0         0         0         0         0
         0         0         0         0         0         0         0         0
         0         0         0         0         0         0         0         0
         0         0         0         0         0         0         0         0
         0         0         0         0         0         0         0         0
         0         0         0         0         0         0         0         0
         0         0         0         0         0         0         0         0
         0         0         0         0         0         0         0         0
         0         0         0         0         0         0         0         0
         0         0         0         0         0         0         0         0
         0         0         0         0         0         0         0         0
         0         0         0         0         0         0         0         0
         0         0         0         0         0         0         0         0
         0         0         0         0         0         0         0         0
         0         0         0         0         0         0         0         0
         0         0         0         0         0         0         0         0
         0         0         0         0         0         0         0         0
         0         0         0         0         0         0         0         0
         0         0         0         0         0         0         0         0
         0         0         0         0         0         0         0         0
         0         0         0         0         0         0         0         0
         0         0         0         0         0         0         0         0
         0         0         0         0         0         0         0         0
         0         0         0         0         0         0         0         0
         0         0         0         0         0         0         0         0
         0         0         0         0         0         0         0         0
         0         0         0         0         0         0         0         0
         0         0         0         0         0         0         0         0
         0         0         0         0         0         0         0         0
         0         0         0         0         0         0         0         0
         0         0         0         0         0         0         0         0
         0         0         0         0         0         0         0         0
         0         0         0         0         0         0         0         0
         0         0         0         0         0         0         0         0
         0         0         0         0         0         0         0         0
         0         0         0         0         0         0         0         0
         0         0         0         0         0         0         0         0
         0         0         0         0         0         0         0         0
         0         0         0         0         0         0         0         0
         0         0         0         0         0         0         0         0
         0         0         0         0         0         0         0         0
         0         0         0         0         0         0         0         0
         0         0         0         0         0         0         0         0
         0         0         0         0         0         0         0         0
         0         0         0         0         0         0         0         0
         0         0         0         0         0         0         0         0
         0         0         0         0         0         0         0         0
         0         0         0         0         0         0         0         0
         0         0         0         0         0         0         0         0
         0         0         0         0         0         0         0         0
         0         0         0         0         0         0         0         0
         0         0         0         0         0         0         0         0
         0         0         0         0         0         0         0         0
         0         0         0         0         0         0         0         0
         0         0         0         0         0         0         0         0
         0         0         0         0         0         0         0         0
         0         0         0         0         0         0         0         0
         0         0         0         0         0         0         0         0
         0         0         0         0         0         0         0         0
         0         0         0         0         0         0         0         0
         0         0         0         0         0         0         0         0
         0         0         0         0         0         0         0         0
         0         0         0         0         0         0         0         0
         0         0         0         0         0         0         0         0
         0         0         0         0         0         0         0         0
         0         0         0         0         0         0         0         0
         0         0         0         0         0         0         0         0
         0         0         0         0         0         0         0         0
         0         0         0         0         0         0         0         0
         0         0         0         0         0         0         0         0
         0         0         0         0         0         0         0         0
         0         0         0         0         0         0         0         0
         0         0         0         0         0         0         0         0
         0         0         0         0         0         0         0         0
         0         0         0         0         0         0         0         0
         0         0         0         0         0         0         0         0
         0         0         0         0         0         0         0         0
         0         0         0         0         0         0         0         0
         0         0         0         0         0         0         0         0
         0         0         0         0         0         0         0         0
         0         0         0         0         0         0         0         0
         0         0         0         0         0         0         0         0
         0         0         0         0         0         0         0         0
         0         0         0         0         0         0         0         0
         0         0         0         0         0         0         0         0
         0         0         0         0         0         0         0         0
         0         0         0         0         0         0         0         0
         0         0         0         0         0         0         0         0
         0         0         0         0         0         0         0         0
         0         0         0         0         0         0         0         0
         0         0         0         0         0         0         0         0
         0         0         0         0         0         0         0         0
         0         0         0         0         0         0         0         0
         0         0         0         0         0         0         0         0
         0         0         0         0         0         0         0         0
         0         0         0         0         0         0         0         0
         0         0         0         0         0         0         0         0
         0         0         0         0         0         0         0         0
         0         0         0         0         0         0         0         0
         0         0         0         0         0         0         0         0
         0         0         0         0         0         0         0         0
         0         0         0         0         0         0         0         0
         0         0         0         0         0         0         0         0
         0         0         0         0         0         0         0         0
         0         0         0         0         0         0         0         0
         0         0         0         0         0         0         0         0
         0         0         0         0         0         0         0         0
         0         0         0         0         0         0         0         0
         0         0         0         0         0         0         0         0
         0         0         0         0         0         0         0         0
         0         0         0         0         0         0         0         0
         0         0         0         0         0         0         0         0
         0         0         0         0         0         0         0         0
         0         0         0         0         0         0         0         0
         0         0         0         0         0         0         0         0
         0         0         0         0         0         0         0         0
         0         0         0         0         0         0         0         0
         0         0         0         0         0         0         0         0
         0         0         0         0         0         0         0         0
         0         0         0         0         0         0         0         0
         0         0         0         0         0         0         0         0
         0         0         0         0         0         0         0         0
         0         0         0         0         0         0         0         0
         0         0         0         0         0         0         0         0
         0         0         0         0         0         0         0         0
         0         0         0         0         0         0         0         0
         0         0         0         0         0         0         0         0
         0         0         0         0         0         0         0         0
         0         0         0         0         0         0         0         0
         0         0         0         0         0         0         0         0
         0         0         0         0         0         0         0         0
         0         0         0         0         0         0         0         0
         0         0         0         0         0         0         0         0
         0         0         0         0         0         0         0         0
         0         0         0         0         0         0         0         0
         0         0         0         0         0         0         0         0
         0         0         0         0         0         0         0         0
         0         0         0         0         0         0         0         0
         0         0         0         0         0         0         0         0
         0         0         0         0         0         0         0         0
         0         0         0         0         0         0         0         0
         0         0         0         0         0         0         0         0
         0         0         0         0         0         0         0         0
         0         0         0         0         0         0         0         0
         0         0         0         0         0         0         0         0
         0         0         0         0         0         0         0         0
         0         0         0         0         0         0         0         0
         0         0         0         0         0         0         0         0
         0         0         0         0         0         0         0         0
         0         0         0         0         0         0         0         0
         0         0         0         0         0         0         0         0
         0         0         0         0         0         0         0         0
         0         0         0         0         0         0         0         0
         0         0         0         0         0         0         0         0
         0         0         0         0         0         0         0         0
         0         0         0         0         0         0         0         0
         0         0         0         0         0         0         0         0
         0         0         0         0         0         0         0         0
         0         0         0         0         0         0         0         0
         0         0         0         0         0         0         0         0
         0         0         0         0         0         0         0         0
         0         0         0         0         0         0         0         0
         0         0         0         0         0         0         0         0
         0         0         0         0         0         0         0         0
         0         0         0         0         0         0         0         0
         0         0         0         0         0         0         0         0
         0         0         0         0         0         0         0         0
         0         0         0         0         0         0         0         0
         0         0         0         0         0         0         0         0
         0         0         0         0         0         0         0         0
         0         0         0         0         0         0         0         0
         0         0         0         0         0         0         0         0
         0         0         0         0         0         0         0         0
         0         0         0         0         0         0         0         0
         0         0         0         0         0         0         0         0
         0         0         0         0         0         0         0         0
         0         0         0         0         0         0         0         0
         0         0         0         0         0         0         0         0
         0         0         0         0         0         0         0         0
         0         0         0         0         0         0         0         0
         0         0         0         0         0         0         0         0
         0         0         0         0         0         0         0         0
         0         0         0         0         0         0         0         0
         0         0         0         0         0         0         0         0
         0         0         0         0         0         0         0         0
         0         0         0         0         0         0         0         0
         0         0         0         0         0         0         0         0
         0         0         0         0         0         0         0         0
         0         0         0         0         0         0         0         0
         0         0         0         0         0         0         0         0
         0         0         0         0         0         0         0         0
         0         0         0         0         0         0         0         0
         0         0         0         0         0         0         0         0
         0         0         0         0         0         0         0         0
         0         0         0         0         0         0         0         0
         0         0         0         0         0         0         0         0
         0         0         0         0         0         0         0         0
         0         0         0         0         0         0         0         0
         0         0         0         0         0         0         0         0
         0         0         0         0         0         0         0         0
         0         0         0         0         0         0         0         0
         0         0         0         0         0         0         0         0
         0         0         0         0         0         0         0         0
         0         0         0         0         0         0         0         0
         0         0         0         0         0         0         0         0
         0         0         0         0         0         0         0         0
         0         0         0         0         0         0         0         0
         0         0         0         0         0         0         0         0
         0         0         0         0         0         0         0         0
         0         0         0         0         0         0         0         0
         0         0         0         0         0         0         0         0
         0         0         0         0         0         0         0         0
         0         0         0         0         0         0         0         0
         0         0         0         0         0         0         0         0
         0         0         0         0         0         0         0         0
         0         0         0         0         0         0         0         0
         0         0         0         0         0         0         0         0
         0         0         0         0         0         0         0         0
         0         0         0         0         0         0         0         0
         0         0         0         0         0         0         0         0
         0         0         0         0         0         0         0         0
         0         0         0         0         0         0         0         0
         0         0         0         0         0         0         0         0
         0         0         0         0         0         0         0         0
         0         0         0         0         0         0         0         0
         0         0         0         0         0         0         0         0
         0         0         0         0         0         0         0         0
         0         0         0         0         0         0         0         0
         0         0         0         0         0         0         0         0
         0         0         0         0         0         0         0         0
         0         0         0         0         0         0         0         0
         0         0         0         0         0         0         0         0
         0         0         0         0         0         0         0         0
         0         0         0         0         0         0         0         0
         0         0         0         0         0         0         0         0
         0         0         0         0         0         0         0         0
         0         0         0         0         0         0         0         0
         0         0         0         0         0         0         0         0
         0         0         0         0         0         0         0         0
         0         0         0         0         0         0         0         0
         0         0         0         0         0         0         0         0
         0         0         0         0         0         0         0         0
         0         0         0         0         0         0         0         0
         0         0         0         0         0         0         0         0
         0         0         0         0         0         0         0         0
         0         0         0         0         0         0         0         0
         0         0         0         0         0         0         0         0
         0         0         0         0         0         0         0         0
         0         0         0         0         0         0         0         0
         0         0         0         0         0         0         0         0
         0         0         0         0         0         0         0         0
         0         0         0         0         0         0         0         0
         0         0         0         0         0         0         0         0
         0         0         0         0         0         0         0         0
         0         0         0         0         0         0         0         0
         0         0         0         0         0         0         0         0
         0         0         0         0         0         0         0         0
         0         0         0         0         0         0         0         0
         0         0         0         0         0         0         0         0
         0         0         0         0         0         0         0         0
         0         0         0         0         0         0         0         0
         0         0         0         0         0         0         0         0
         0         0         0         0         0         0         0         0
         0         0         0         0         0         0         0         0
         0         0         0         0         0         0         0         0
         0         0         0         0         0         0         0         0
         0         0         0         0         0         0         0         0
         0         0         0         0         0         0         0         0
         0         0         0         0         0         0         0         0
         0         0         0         0         0         0         0         0
         0         0         0         0         0         0         0         0
         0         0         0         0         0         0         0         0
         0         0         0         0         0         0         0         0
         0         0         0         0         0         0         0         0
         0         0         0         0         0         0         0         0
         0         0         0         0         0         0         0         0
         0         0         0         0         0         0         0         0
         0         0         0         0         0         0         0         0
         0         0         0         0         0         0         0         0
         0         0         0         0         0         0         0         0
         0         0         0         0         0         0         0         0
         0         0         0         0         0         0         0         0
         0         0         0         0         0         0         0         0
         0         0         0         0         0         0         0         0
         0         0         0         0         0         0         0         0
         0         0         0         0         0         0         0         0
         0         0         0         0         0         0         0         0
         0         0         0         0         0         0         0         0
         0         0         0         0         0         0         0         0
         0         0         0         0         0         0         0         0
         0         0         0         0         0         0         0         0
         0         0         0         0         0         0         0         0
         0         0         0         0         0         0         0         0
         0         0         0         0         0         0         0         0
         0         0         0         0         0         0         0         0
         0         0         0         0         0         0         0         0
         0         0         0         0         0         0         0         0
         0         0         0         0         0         0         0         0
         0         0         0         0         0         0         0         0
         0         0         0         0         0         0         0         0
         0         0         0         0         0         0         0         0
         0         0         0         0         0         0         0         0
         0         0         0         0         0         0         0         0
         0         0         0         0         0         0         0         0
         0         0         0         0         0         0         0         0
         0         0         0         0         0         0         0         0
         0         0         0         0         0         0         0         0
         0         0         0         0         0         0         0         0
         0         0         0         0         0         0         0         0
         0         0         0         0         0         0         0         0
         0         0         0         0         0         0         0         0
         0         0         0         0         0         0         0         0
         0         0         0         0         0         0         0         0
         0         0         0         0         0         0         0         0
         0         0         0         0         0         0         0         0
         0         0         0         0         0         0         0         0
         0         0         0         0         0         0         0         0
         0         0         0         0         0         0         0         0
         0         0         0         0         0         0         0         0
         0         0         0         0         0         0         0         0
         0         0         0         0         0         0         0         0
         0         0         0         0         0         0         0         0
         0         0         0         0         0         0         0         0
         0         0         0         0         0         0         0         0
         0         0         0         0         0         0         0         0
         0         0         0         0         0         0         0         0
         0         0         0         0         0         0         0         0
         0         0         0         0         0         0         0         0
         0         0         0         0         0         0         0         0
         0         0         0         0         0         0         0         0
         0         0         0         0         0         0         0         0
         0         0         0         0         0         0         0         0
         0         0         0         0         0         0         0         0
         0         0         0         0         0         0         0         0
         0         0         0         0         0         0         0         0
         0         0         0         0         0         0         0         0
         0         0         0         0         0         0         0         0
         0         0         0         0         0         0         0         0
         0         0         0         0         0         0         0         0
         0         0         0         0         0         0         0         0
         0         0         0         0         0         0         0         0
         0         0         0         0         0         0         0         0
         0         0         0         0         0         0         0         0
         0         0         0         0         0         0         0         0
         0         0         0         0         0         0         0         0
         0         0         0         0         0         0         0         0
         0         0         0         0         0         0         0         0
         0         0         0         0         0         0         0         0
         0         0         0         0         0         0         0         0
         0         0         0         0         0         0         0         0
         0         0         0         0         0         0         0         0
         0         0         0         0         0         0         0         0
         0         0         0         0         0         0         0         0
         0         0         0         0         0         0         0         0
         0         0         0         0         0         0         0         0
         0         0         0         0         0         0         0         0
         0         0         0         0         0         0         0         0
         0         0         0         0         0         0         0         0
         0         0         0         0         0         0         0         0
         0         0         0         0         0         0         0         0
         0         0         0         0         0         0         0         0
         0         0         0         0         0         0         0         0
         0         0         0         0         0         0         0         0
         0         0         0         0         0         0         0         0
         0         0         0         0         0         0         0         0
         0         0         0         0         0         0         0         0
         0         0         0         0         0         0         0         0
         0         0         0         0         0         0         0         0
         0         0         0         0         0         0         0         0
         0         0         0         0         0         0         0         0
         0         0         0         0         0         0         0         0
         0         0         0         0         0         0         0         0
         0         0         0         0         0         0         0         0
         0         0         0         0         0         0         0         0
         0         0         0         0         0         0         0         0
         0         0         0         0         0         0         0         0
         0         0         0         0         0         0         0         0
         0         0         0         0         0         0         0         0
         0         0         0         0         0         0         0         0
         0         0         0         0         0         0         0         0
         0         0         0         0         0         0         0         0
         0         0         0         0         0         0         0         0
         0         0         0         0         0         0         0         0
         0         0         0         0         0         0         0         0
         0         0         0         0         0         0         0         0
         0         0         0         0         0         0         0         0
         0         0         0         0         0         0         0         0
         0         0         0         0         0         0         0         0
         0         0         0         0         0         0         0         0
         0         0         0         0         0         0         0         0
         0         0         0         0         0         0         0         0
         0         0         0         0         0         0         0         0
         0         0         0         0         0         0         0         0
         0         0         0         0         0         0         0         0
         0         0         0         0         0         0         0         0
         0         0         0         0         0         0         0         0
         0         0         0         0         0         0         0         0
         0         0         0         0         0         0         0         0
         0         0         0         0         0         0         0         0
         0         0         0         0         0         0         0         0
         0         0         0         0         0         0         0         0
         0         0         0         0         0         0         0         0
         0         0         0         0         0         0         0         0
         0         0         0         0         0         0         0         0
         0         0         0         0         0         0         0         0
         0         0         0         0         0         0         0         0
         0         0         0         0         0         0         0         0
         0         0         0         0         0         0         0         0
         0         0         0         0         0         0         0         0
         0         0         0         0         0         0         0         0
         0         0         0         0         0         0         0         0
         0         0         0         0         0         0         0         0
         0         0         0         0         0         0         0         0
         0         0         0         0         0         0         0         0
         0         0         0         0         0         0         0         0
         0         0         0         0         0         0         0         0
         0         0         0         0         0         0         0         0
         0         0         0         0         0         0         0         0
         0         0         0         0         0         0         0         0
         0         0         0         0         0         0         0         0
         0         0         0         0         0         0         0         0
         0         0         0         0         0         0         0         0
         0         0         0         0         0         0         0         0
         0         0         0         0         0         0         0         0
         0         0         0         0         0         0         0         0
         0         0         0         0         0         0         0         0
         0         0         0         0         0         0         0         0
         0         0         0         0         0         0         0         0
         0         0         0         0         0         0         0         0
         0         0         0         0         0         0         0         0
         0         0         0         0         0         0         0         0
         0         0         0         0         0         0         0         0
         0         0         0         0         0         0         0         0
         0         0         0         0         0         0         0         0
         0         0         0         0         0         0         0         0
         0         0         0         0         0         0         0         0
         0         0         0         0         0         0         0         0
         0         0         0         0         0         0         0         0
         0         0         0         0         0         0         0         0
         0         0         0         0         0         0         0         0
         0         0         0         0         0         0         0         0
         0         0         0         0         0         0         0         0
         0         0         0         0         0         0         0         0
         0         0         0         0         0         0         0         0
         0         0         0         0         0         0         0         0
         0         0         0         0         0         0         0         0
         0         0         0         0         0         0         0         0
         0         0         0         0         0         0         0         0
         0         0         0         0         0         0         0         0
         0         0         0         0         0         0         0         0
         0         0         0         0         0         0         0         0
         0         0         0         0         0         0         0         0
         0         0         0         0         0         0         0         0
         0         0         0         0         0         0         0         0
         0         0         0         0         0         0         0         0
         0         0         0         0         0         0         0         0
         0         0         0         0         0         0         0         0
         0         0         0         0         0         0         0         0
         0         0         0         0         0         0         0         0
         0         0         0         0         0         0         0         0
         0         0         0         0         0         0         0         0
         0         0         0         0         0         0         0         0
         0         0         0         0         0         0         0         0
         0         0         0         0         0         0         0         0
         0         0         0         0         0         0         0         0
         0         0         0         0         0         0         0         0
         0         0         0         0         0         0         0         0
         0         0         0         0         0         0         0         0
         0         0         0         0         0         0         0         0
         0         0         0         0         0         0         0         0
         0         0         0         0         0         0         0         0
         0         0         0         0         0         0         0         0
         0         0         0         0         0         0         0         0
         0         0         0         0         0         0         0         0
         0         0         0         0         0         0         0         0
         0         0         0         0         0         0         0         0
         0         0         0         0         0         0         0         0
         0         0         0         0         0         0         0         0
         0         0         0         0         0         0         0         0
         0         0         0         0         0         0         0         0
         0         0         0         0         0         0         0         0
         0         0         0         0         0         0         0         0
         0         0         0         0         0         0         0         0
         0         0         0         0         0         0         0         0
         0         0         0         0         0         0         0         0
         0         0         0         0         0         0         0         0
         0         0         0         0         0         0         0         0
         0         0         0         0         0         0         0         0
         0         0         0         0         0         0         0         0
         0         0         0         0         0         0         0         0
         0         0         0         0         0         0         0         0
         0         0         0         0         0         0         0         0
         0         0         0         0         0         0         0         0
         0         0         0         0         0         0         0         0
         0         0         0         0         0         0         0         0
         0         0         0         0         0         0         0         0
         0         0         0         0         0         0         0         0
         0         0         0         0         0         0         0         0
         0         0         0         0         0         0         0         0
         0         0         0         0         0         0         0         0
         0         0         0         0         0         0         0         0
         0         0         0         0         0         0         0         0
         0         0         0         0         0         0         0         0
         0         0         0         0         0         0         0         0
         0         0         0         0         0         0         0         0
         0         0         0         0         0         0         0         0
         0         0         0         0         0         0         0         0
         0         0         0         0         0         0         0         0
         0         0         0         0         0         0         0         0
         0         0         0         0         0         0         0         0
         0         0         0         0         0         0         0         0
         0         0         0         0         0         0         0         0
         0         0         0         0         0         0         0         0
         0         0         0         0         0         0         0         0
         0         0         0         0         0         0         0         0
         0         0         0         0         0         0         0         0
         0         0         0         0         0         0         0         0
         0         0         0         0         0         0         0         0
         0         0         0         0         0         0         0         0
         0         0         0         0         0         0         0         0
         0         0         0         0         0         0         0         0
         0         0         0         0         0         0         0         0
         0         0         0         0         0         0         0         0
         0         0         0         0         0         0         0         0
         0         0         0         0         0         0         0         0
         0         0         0         0         0         0         0         0
         0         0         0         0         0         0         0         0
         0         0         0         0         0         0         0         0
         0         0         0         0         0         0         0         0
         0         0         0         0         0         0         0         0
         0         0         0         0         0         0         0         0
         0         0         0         0         0         0         0         0
         0         0         0         0         0         0         0         0
         0         0         0         0         0         0         0         0
         0         0         0         0         0         0         0         0
         0         0         0         0         0         0         0         0
         0         0         0         0         0         0         0         0
         0         0         0         0         0         0         0         0
         0         0         0         0         0         0         0         0
         0         0         0         0         0         0         0         0
         0         0         0         0         0         0         0         0
         0         0         0         0         0         0         0         0
         0         0         0         0         0         0         0         0
         0         0         0         0         0         0         0         0
         0         0         0         0         0         0         0         0
         0         0         0         0         0         0         0         0
         0         0         0         0         0         0         0         0
         0         0         0         0         0         0         0         0
         0         0         0         0         0         0         0         0
         0         0         0         0         0         0         0         0
         0         0         0         0         0         0         0         0
         0         0         0         0         0         0         0         0
         0         0         0         0         0         0         0         0
         0         0         0         0         0         0         0         0
         0         0         0         0         0         0         0         0
         0         0         0         0         0         0         0         0
         0         0         0         0         0         0         0         0
         0         0         0         0         0         0         0         0
         0         0         0         0         0         0         0         0
         0         0         0         0         0         0         0         0
         0         0         0         0         0         0         0         0
         0         0         0         0         0         0         0         0
         0         0         0         0         0         0         0         0
         0         0         0         0         0         0         0         0
         0         0         0         0         0         0         0         0
         0         0         0         0         0         0         0         0
         0         0         0         0         0         0         0         0
         0         0         0         0         0         0         0         0
         0         0         0         0         0         0         0         0
         0         0         0         0         0         0         0         0
         0         0         0         0         0         0         0         0
         0         0         0         0         0         0         0         0
         0         0         0         0         0         0         0         0
         0         0         0         0         0         0         0         0
         0         0         0         0         0         0         0         0
         0         0         0         0         0         0         0         0
         0         0         0         0         0         0         0         0
         0         0         0         0         0         0         0         0
         0         0         0         0         0         0         0         0
         0         0         0         0         0         0         0         0
         0         0         0         0         0         0         0         0
         0         0         0         0         0         0         0         0
         0         0         0         0         0         0         0         0
         0         0         0         0         0         0         0         0
         0         0         0         0         0         0         0         0
         0         0         0         0         0         0         0         0
         0         0         0         0         0         0         0         0
         0         0         0         0         0         0         0         0
         0         0         0         0         0         0         0         0
         0         0         0         0         0         0         0         0
         0         0         0         0         0         0         0         0
         0         0         0         0         0         0         0         0
         0         0         0         0         0         0         0         0
         0         0         0         0         0         0         0         0
         0         0         0         0         0         0         0         0
         0         0         0         0         0         0         0         0
         0         0         0         0         0         0         0         0
         0         0         0         0         0         0         0         0
         0         0         0         0         0         0         0         0
         0         0         0         0         0         0         0         0
         0         0         0         0         0         0         0         0
         0         0         0         0         0         0         0         0
         0         0         0         0         0         0         0         0
         0         0         0         0         0         0         0         0
         0         0         0         0         0         0         0         0
         0         0         0         0         0         0         0         0
         0         0         0         0         0         0         0         0
         0         0         0         0         0         0         0         0
         0         0         0         0         0         0         0         0
         0         0         0         0         0         0         0         0
         0         0         0         0         0         0         0         0
         0         0         0         0         0         0         0         0
         0         0         0         0         0         0         0         0
         0         0         0         0         0         0         0         0
         0         0         0         0         0         0         0         0
         0         0         0         0         0         0         0         0
         0         0         0         0         0         0         0         0
         0         0         0         0         0         0         0         0
         0         0         0         0         0         0         0         0
         0         0         0         0         0         0         0         0
         0         0         0         0         0         0         0         0
         0         0         0         0         0         0         0         0
         0         0         0         0         0         0         0         0
         0         0         0         0         0         0         0         0
         0         0         0         0         0         0         0         0
         0         0         0         0         0         0         0         0
         0         0         0         0         0         0         0         0
         0         0         0         0         0         0         0         0
         0         0         0         0         0         0         0         0
         0         0         0         0         0         0         0         0
         0         0         0         0         0         0         0         0
         0         0         0         0         0         0         0         0
         0         0         0         0         0         0         0         0
         0         0         0         0         0         0         0         0
         0         0         0         0         0         0         0         0
         0         0         0         0         0         0         0         0
         0         0         0         0         0         0         0         0
         0         0         0         0         0         0         0         0
         0         0         0         0         0         0         0         0
         0         0         0         0         0         0         0         0
         0         0         0         0         0         0         0         0
         0         0         0         0         0         0         0         0
         0         0         0         0         0         0         0         0
         0         0         0         0         0         0         0         0
         0         0         0         0         0         0         0         0
         0         0         0         0         0         0         0         0
         0         0         0         0         0         0         0         0
         0         0         0         0         0         0         0         0
         0         0         0         0         0         0         0         0
         0         0         0         0         0         0         0         0
         0         0         0         0         0         0         0         0
         0         0         0         0         0         0         0         0
         0         0         0         0         0         0         0         0
         0         0         0         0         0         0         0         0
         0         0         0         0         0         0         0         0
         0         0         0         0         0         0         0         0
         0         0         0         0         0         0         0         0
         0         0         0         0         0         0         0         0
         0         0         0         0         0         0         0         0
         0         0         0         0         0         0         0         0
         0         0         0         0         0         0         0         0
         0         0         0         0         0         0         0         0
         0         0         0         0         0         0         0         0
         0         0         0         0         0         0         0         0
         0         0         0         0         0         0         0         0
         0         0         0         0         0         0         0         0
         0         0         0         0         0         0         0         0
         0         0         0         0         0         0         0         0
         0         0         0         0         0         0         0         0
         0         0         0         0         0         0         0         0
         0         0         0         0         0         0         0         0
         0         0         0         0         0         0         0         0
         0         0         0         0         0         0         0         0
         0         0         0         0         0         0         0         0
         0         0         0         0         0         0         0         0
         0         0         0         0         0         0         0         0
         0         0         0         0         0         0         0         0
         0         0         0         0         0         0         0         0
         0         0         0         0         0         0         0         0
         0         0         0         0         0         0         0         0
         0         0         0         0         0         0         0         0
         0         0         0         0         0         0         0         0
         0         0         0         0         0         0         0         0
         0         0         0         0         0         0         0         0
         0         0         0         0         0         0         0         0
         0         0         0         0         0         0         0         0
         0         0         0         0         0         0         0         0
         0         0         0         0         0         0         0         0
         0         0         0         0         0         0         0         0
         0         0         0         0         0         0         0         0
         0         0         0         0         0         0         0         0
         0         0         0         0         0         0         0         0
         0         0         0         0         0         0         0         0
         0         0         0         0         0         0         0         0
         0         0         0         0         0         0         0         0
         0         0         0         0         0         0         0         0
         0         0         0         0         0         0         0         0
         0         0         0         0         0         0         0         0
         0         0         0         0         0         0         0         0
         0         0         0         0         0         0         0         0
         0         0         0         0         0         0         0         0
         0         0         0         0         0         0         0         0
         0         0         0         0         0         0         0         0
         0         0         0         0         0         0         0         0
         0         0         0         0         0         0         0         0
         0         0         0         0         0         0         0         0
         0         0         0         0         0         0         0         0
         0         0         0         0         0         0         0         0
         0         0         0         0         0         0         0         0
         0         0         0         0         0         0         0         0
         0         0         0         0         0         0         0         0
         0         0         0         0         0         0         0         0
         0         0         0         0         0         0         0         0
         0         0         0         0         0         0         0         0
         0         0         0         0         0         0         0         0
         0         0         0         0         0         0         0         0
         0         0         0         0         0         0         0         0
         0         0         0         0         0         0         0         0
         0         0         0         0         0         0         0         0
         0         0         0         0         0         0         0         0
         0         0         0         0         0         0         0         0
         0         0         0         0         0         0         0         0
         0         0         0         0         0         0         0         0
         0         0         0         0         0         0         0         0
         0         0         0         0         0         0         0         0
         0         0         0         0         0         0         0         0
         0         0         0         0         0         0         0         0
         0         0         0         0         0         0         0         0
         0         0         0         0         0         0         0         0
         0         0         0         0         0         0         0         0
         0         0         0         0         0         0         0         0
         0         0         0         0         0         0         0         0
         0         0         0         0         0         0         0         0
         0         0         0         0         0         0         0         0
         0         0         0         0         0         0         0         0
         0         0         0         0         0         0         0         0
         0         0         0         0         0         0         0         0
         0         0         0         0         0         0         0         0
         0         0         0         0         0         0         0         0
         0         0         0         0         0         0         0         0
         0         0         0         0         0         0         0         0
         0         0         0         0         0         0         0         0
         0         0         0         0         0         0         0         0
         0         0         0         0         0         0         0         0
         0         0         0         0         0         0         0         0
         0         0         0         0         0         0         0         0
         0         0         0         0         0         0         0         0
         0         0         0         0         0         0         0         0
         0         0         0         0         0         0         0         0
         0         0         0         0         0         0         0         0
         0         0         0         0         0         0         0         0
         0         0         0         0         0         0         0         0
         0         0         0         0         0         0         0         0
         0         0         0         0         0         0         0         0
         0         0         0         0         0         0         0         0
         0         0         0         0         0         0         0         0
         0         0         0         0         0         0         0         0
         0         0         0         0         0         0         0         0
         0         0         0         0         0         0         0         0
         0         0         0         0         0         0         0         0
         0         0         0         0         0         0         0         0
         0         0         0         0         0         0         0         0
         0         0         0         0         0         0         0         0
         0         0         0         0         0         0         0         0
         0         0         0         0         0         0         0         0
         0         0         0         0         0         0         0         0
         0         0         0         0         0         0         0         0
         0         0         0         0         0         0         0         0
         0         0         0         0         0         0         0         0
         0         0         0         0         0         0         0         0
         0         0         0         0         0         0         0         0
         0         0         0         0         0         0         0         0
         0         0         0         0         0         0         0         0
         0         0         0         0         0         0         0         0
         0         0         0         0         0         0         0         0
         0         0         0         0         0         0         0         0
         0         0         0         0         0         0         0         0
         0         0         0         0         0         0         0         0
         0         0         0         0         0         0         0         0
         0         0         0         0         0         0         0         0
         0         0         0         0         0         0         0         0
         0         0         0         0         0         0         0         0
         0         0         0         0         0         0         0         0
         0         0         0         0         0         0         0         0
         0         0         0         0         0         0         0         0
         0         0         0         0         0         0         0         0
         0         0         0         0         0         0         0         0
         0         0         0         0         0         0         0         0
         0         0         0         0         0         0         0         0
         0         0         0         0         0         0         0         0
         0         0         0         0         0         0         0         0
         0         0         0         0         0         0         0         0
         0         0         0         0         0         0         0         0
         0         0         0         0         0         0         0         0
         0         0         0         0         0         0         0         0
         0         0         0         0         0         0         0         0
         0         0         0         0         0         0         0         0
         0         0         0         0         0         0         0         0
         0         0         0         0         0         0         0         0
         0         0         0         0         0         0         0         0
         0         0         0         0         0         0         0         0
         0         0         0         0         0         0         0         0
         0         0         0         0         0         0         0         0
         0         0         0         0         0         0         0         0
         0         0         0         0         0         0         0         0
         0         0         0         0         0         0         0         0
         0         0         0         0         0         0         0         0
         0         0         0         0         0         0         0         0
         0         0         0         0         0         0         0         0
         0         0         0         0         0         0         0         0
         0         0         0         0         0         0         0         0
         0         0         0         0         0         0         0         0
         0         0         0         0         0         0         0         0
         0         0         0         0         0         0         0         0
         0         0         0         0         0         0         0         0
         0         0         0         0         0         0         0         0
         0         0         0         0         0         0         0         0
         0         0         0         0         0         0         0         0
         0         0         0         0         0         0         0         0
         0         0         0         0         0         0         0         0
         0         0         0         0         0         0         0         0
         0         0         0         0         0         0         0         0
         0         0         0         0         0         0         0         0
         0         0         0         0         0         0         0         0
         0         0         0         0         0         0         0         0
         0         0         0         0         0         0         0         0
         0         0         0         0         0         0         0         0
         0         0         0         0         0         0         0         0
         0         0         0         0         0         0         0         0
         0         0         0         0         0         0         0         0
         0         0         0         0         0         0         0         0
         0         0         0         0         0         0         0         0
         0         0         0         0         0         0         0         0
         0         0         0         0         0         0         0         0
         0         0         0         0         0         0         0         0
         0         0         0         0         0         0         0         0
         0         0         0         0         0         0         0         0
         0         0         0         0         0         0         0         0
         0         0         0         0         0         0         0         0
         0         0         0         0         0         0         0         0
         0         0         0         0         0         0         0         0
         0         0         0         0         0         0         0         0
         0         0         0         0         0         0         0         0
         0         0         0         0         0         0         0         0
         0         0         0         0         0         0         0         0
         0         0         0         0         0         0         0         0
         0         0         0         0         0         0         0         0
         0         0         0         0         0         0         0         0
         0         0         0         0         0         0         0         0
         0         0         0         0         0         0         0         0
         0         0         0         0         0         0         0         0
         0         0         0         0         0         0         0         0
         0         0         0         0         0         0         0         0
         0         0         0         0         0         0         0         0
         0         0         0         0         0         0         0         0
         0         0         0         0         0         0         0         0
         0         0         0         0         0         0         0         0
         0         0         0         0         0         0         0         0
         0         0         0         0         0         0         0         0
         0         0         0         0         0         0         0         0
         0         0         0         0         0         0         0         0
         0         0         0         0         0         0         0         0
         0         0         0         0         0         0         0         0
         0         0         0         0         0         0         0         0
         0         0         0         0         0         0         0         0
         0         0         0         0         0         0         0         0
         0         0         0         0         0         0         0         0
         0         0         0         0         0         0         0         0
         0         0         0         0         0         0         0         0
         0         0         0         0         0         0         0         0
         0         0         0         0         0         0         0         0
         0         0         0         0         0         0         0         0
         0         0         0         0         0         0         0         0
         0         0         0         0         0         0         0         0
         0         0         0         0         0         0         0         0
         0         0         0         0         0         0         0         0
         0         0         0         0         0         0         0         0
         0         0         0         0         0         0         0         0
         0         0         0         0         0         0         0         0
         0         0         0         0         0         0         0         0
         0         0         0         0         0         0         0         0
         0         0         0         0         0         0         0         0
         0         0         0         0         0         0         0         0
         0         0         0         0         0         0         0         0
         0         0         0         0         0         0         0         0
         0         0         0         0         0         0         0         0
         0         0         0         0         0         0         0         0
         0         0         0         0         0         0         0         0
         0         0         0         0         0         0         0         0
         0         0         0         0         0         0         0         0
         0         0         0         0         0         0         0         0
         0         0         0         0         0         0         0         0
         0         0         0         0         0         0         0         0
         0         0         0         0         0         0         0         0
         0         0         0         0         0         0         0         0
         0         0         0         0         0         0         0         0
         0         0         0         0         0         0         0         0
         0         0         0         0         0         0         0         0
         0         0         0         0         0         0         0         0
         0         0         0         0         0         0         0         0
         0         0         0         0         0         0         0         0
         0         0         0         0         0         0         0         0
         0         0         0         0         0         0         0         0
         0         0         0         0         0         0         0         0
         0         0         0         0         0         0         0         0
         0         0         0         0         0         0         0         0
         0         0         0         0         0         0         0         0
         0         0         0         0         0         0         0         0
         0         0         0         0         0         0         0         0
         0         0         0         0         0         0         0         0
         0         0         0         0         0         0         0         0
         0         0         0         0         0         0         0         0
         0         0         0         0         0         0         0         0
         0         0         0         0         0         0         0         0
         0         0         0         0         0         0         0         0
         0         0         0         0         0         0         0         0
         0         0         0         0         0         0         0         0
         0         0         0         0         0         0         0         0
         0         0         0         0         0         0         0         0
         0         0         0         0         0         0         0         0
         0         0         0         0         0         0         0         0
         0         0         0         0         0         0         0         0
         0         0         0         0         0         0         0         0
         0         0         0         0         0         0         0         0
         0         0         0         0         0         0         0         0
         0         0         0         0         0         0         0         0
         0         0         0         0         0         0         0         0
         0         0         0         0         0         0         0         0
         0         0         0         0         0         0         0         0
         0         0         0         0         0         0         0         0
         0         0         0         0         0         0         0         0
         0         0         0         0         0         0         0         0
         0         0         0         0         0         0         0         0
         0         0         0         0         0         0         0         0
         0         0         0         0         0         0         0         0
         0         0         0         0         0         0         0         0
         0         0         0         0         0         0         0         0
         0         0         0         0         0         0         0         0
         0         0         0         0         0         0         0         0
         0         0         0         0         0         0         0         0
         0         0         0         0         0         0         0         0
         0         0         0         0         0         0         0         0
         0         0         0         0         0         0         0         0
         0         0         0         0         0         0         0         0
         0         0         0         0         0         0         0         0
         0         0         0         0         0         0         0         0
         0         0         0         0         0         0         0         0
         0         0         0         0         0         0         0         0
         0         0         0         0         0         0         0         0
         0         0         0         0         0         0         0         0
         0         0         0         0         0         0         0         0
         0         0         0         0         0         0         0         0
         0         0         0         0         0         0         0         0
         0         0         0         0         0         0         0         0
         0         0         0         0         0         0         0         0
         0         0         0         0         0         0         0         0
         0         0         0         0         0         0         0         0
         0         0         0         0         0         0         0         0
         0         0         0         0         0         0         0         0
         0         0         0         0         0         0         0         0
         0         0         0         0         0         0         0         0
         0         0         0         0         0         0         0         0
         0         0         0         0         0         0         0         0
         0         0         0         0         0         0         0         0
         0         0         0         0         0         0         0         0
         0         0         0         0         0         0         0         0
         0         0         0         0         0         0         0         0
         0         0         0         0         0         0         0         0
         0         0         0         0         0         0         0         0
         0         0         0         0         0         0         0         0
         0         0         0         0         0         0         0         0
         0         0         0         0         0         0         0         0
         0         0         0         0         0         0         0         0
         0         0         0         0         0         0         0         0
         0         0         0         0         0         0         0         0
         0         0         0         0         0         0         0         0
         0         0         0         0         0         0         0         0
         0         0         0         0         0         0         0         0
         0         0         0         0         0         0         0         0
         0         0         0         0         0         0         0         0
         0         0         0         0         0         0         0         0
         0         0         0         0         0         0         0         0
         0         0         0         0         0         0         0         0
         0         0         0         0         0         0         0         0
         0         0         0         0         0         0         0         0
         0         0         0         0         0         0         0         0
         0         0         0         0         0         0         0         0
         0         0         0         0         0         0         0         0
         0         0         0         0         0         0         0         0
         0         0         0         0         0         0         0         0
         0         0         0         0         0         0         0         0
         0         0         0         0         0         0         0         0
         0         0         0         0         0         0         0         0
         0         0         0         0         0         0         0         0
         0         0         0         0         0         0         0         0
         0         0         0         0         0         0         0         0
         0         0         0         0         0         0         0         0
         0         0         0         0         0         0         0         0
         0         0         0         0         0         0         0         0
         0         0         0         0         0         0         0         0
         0         0         0         0         0         0         0         0
         0         0         0         0         0         0         0         0
         0         0         0         0         0         0         0         0
         0         0         0         0         0         0         0         0
         0         0         0         0         0         0         0         0
         0         0         0         0         0         0         0         0
         0         0         0         0         0         0         0         0
         0         0         0         0         0         0         0         0
         0         0         0         0         0         0         0         0
         0         0         0         0         0         0         0         0
         0         0         0         0         0         0         0         0
         0         0         0         0         0         0         0         0
         0         0         0         0         0         0         0         0
         0         0         0         0         0         0         0         0
         0         0         0         0         0         0         0         0
         0         0         0         0         0         0         0         0
         0         0         0         0         0         0         0         0
         0         0         0         0         0         0         0         0
         0         0         0         0         0         0         0         0
         0         0         0         0         0         0         0         0
         0         0         0         0         0         0         0         0
         0         0         0         0         0         0         0         0
         0         0         0         0         0         0         0         0
         0         0         0         0         0         0         0         0
         0         0         0         0         0         0         0         0
         0         0         0         0         0         0         0         0
         0         0         0         0         0         0         0         0
         0         0         0         0         0         0         0         0
         0         0         0         0         0         0         0         0
         0         0         0         0         0         0         0         0
         0         0         0         0         0         0         0         0
         0         0         0         0         0         0         0         0
         0         0         0         0         0         0         0         0
         0         0         0         0         0         0         0         0
         0         0         0         0         0         0         0         0
         0         0         0         0         0         0         0         0
         0         0         0         0         0         0         0         0
         0         0         0         0         0         0         0         0
         0         0         0         0         0         0         0         0
         0         0         0         0         0         0         0         0
         0         0         0         0         0         0         0         0
         0         0         0         0         0         0         0         0
         0         0         0         0         0         0         0         0
         0         0         0         0         0         0         0         0
         0         0         0         0         0         0         0         0
         0         0         0         0         0         0         0         0
         0         0         0         0         0         0         0         0
         0         0         0         0         0         0         0         0
         0         0         0         0         0         0         0         0
         0         0         0         0         0         0         0         0
         0         0         0         0         0         0         0         0
         0         0         0         0         0         0         0         0
         0         0         0         0         0         0         0         0
         0         0         0         0         0         0         0         0
         0         0         0         0         0         0         0         0
         0         0         0         0         0         0         0         0
         0         0         0         0         0         0         0         0
         0         0         0         0         0         0         0         0
         0         0         0         0         0         0         0         0
         0         0         0         0         0         0         0         0
         0         0         0         0         0         0         0         0
         0         0         0         0         0         0         0         0
         0         0         0         0         0         0         0         0
         0         0         0         0         0         0         0         0
         0         0         0         0         0         0         0         0
         0         0         0         0         0         0         0         0
         0         0         0         0         0         0         0         0
         0         0         0         0         0         0         0         0
         0         0         0         0         0         0         0         0
         0         0         0         0         0         0         0         0
         0         0         0         0         0         0         0         0
         0         0         0         0         0         0         0         0
         0         0         0         0         0         0         0         0
         0         0         0         0         0         0         0         0
         0         0         0         0         0         0         0         0
         0         0         0         0         0         0         0         0
         0         0         0         0         0         0         0         0
         0         0         0         0         0         0         0         0
         0         0         0         0         0         0         0         0
         0         0         0         0         0         0         0         0
         0         0         0         0         0         0         0         0
         0         0         0         0         0         0         0         0
         0         0         0         0         0         0         0         0
         0         0         0         0         0         0         0         0
         0         0         0         0         0         0         0         0
         0         0         0         0         0         0         0         0
         0         0         0         0         0         0         0         0
         0         0         0         0         0         0         0         0
         0         0         0         0         0         0         0         0
         0         0         0         0         0         0         0         0
         0         0         0         0         0         0         0         0
         0         0         0         0         0         0         0         0
         0         0         0         0         0         0         0         0
         0         0         0         0         0         0         0         0
         0         0         0         0         0         0         0         0
         0         0         0         0         0         0         0         0
         0         0         0         0         0         0         0         0
         0         0         0         0         0         0         0         0
         0         0         0         0         0         0         0         0
         0         0         0         0         0         0         0         0
         0         0         0         0         0         0         0         0
         0         0         0         0         0         0         0         0
         0         0         0         0         0         0         0         0
         0         0         0         0         0         0         0         0
         0         0         0         0         0         0         0         0
         0         0         0         0         0         0         0         0
         0         0         0         0         0         0         0         0
         0         0         0         0         0         0         0         0
         0         0         0         0         0         0         0         0
         0         0         0         0         0         0         0         0
         0         0         0         0         0         0         0         0
         0         0         0         0         0         0         0         0
         0         0         0         0         0         0         0         0
         0         0         0         0         0         0         0         0
         0         0         0         0         0         0         0         0
         0         0         0         0         0         0         0         0
         0         0         0         0         0         0         0         0
         0         0         0         0         0         0         0         0
         0         0         0         0         0         0         0         0
         0         0         0         0         0         0         0         0
         0         0         0         0         0         0         0         0
         0         0         0         0         0         0         0         0
         0         0         0         0         0         0         0         0
         0         0         0         0         0         0         0         0
         0         0         0         0         0         0         0         0
         0         0         0         0         0         0         0         0
         0         0         0         0         0         0         0         0
         0         0         0         0         0         0         0         0
         0         0         0         0         0         0         0         0
         0         0         0         0         0         0         0         0
         0         0         0         0         0         0         0         0
         0         0         0         0         0         0         0         0
         0         0         0         0         0         0         0         0
         0         0         0         0         0         0         0         0
         0         0         0         0         0         0         0         0
         0         0         0         0         0         0         0         0
         0         0         0         0         0         0         0         0
         0         0         0         0         0         0         0         0
         0         0         0         0         0         0         0         0
         0         0         0         0         0         0         0         0
         0         0         0         0         0         0         0         0
         0         0         0         0         0         0         0         0
         0         0         0         0         0         0         0         0
         0         0         0         0         0         0         0         0
         0         0         0         0         0         0         0         0
         0         0         0         0         0         0         0         0
         0         0         0         0         0         0         0         0
         0         0         0         0         0         0         0         0
         0         0         0         0         0         0         0         0
         0         0         0         0         0         0         0         0
         0         0         0         0         0         0         0         0
         0         0         0         0         0         0         0         0
         0         0         0         0         0         0         0         0
         0         0         0         0         0         0         0         0
         0         0         0         0         0         0         0         0
         0         0         0         0         0         0         0         0
         0         0         0         0         0         0         0         0
         0         0         0         0         0         0         0         0
         0         0         0         0         0         0         0         0
         0         0         0         0         0         0         0         0
         0         0         0         0         0         0         0         0
         0         0         0         0         0         0         0         0
         0         0         0         0         0         0         0         0
         0         0         0         0         0         0         0         0
         0         0         0         0         0         0         0         0
         0         0         0         0         0         0         0         0
         0         0         0         0         0         0         0         0
         0         0         0         0         0         0         0         0
         0         0         0         0         0         0         0         0
         0         0         0         0         0         0         0         0
         0         0         0         0         0         0         0         0
         0         0         0         0         0         0         0         0
         0         0         0         0         0         0         0         0
         0         0         0         0         0         0         0         0
         0         0         0         0         0         0         0         0
         0         0         0         0         0         0         0         0
         0         0         0         0         0         0         0         0
         0         0         0         0         0         0         0         0
         0         0         0         0         0         0         0         0
         0         0         0         0         0         0         0         0
         0         0         0         0         0         0         0         0
         0         0         0         0         0         0         0         0
         0         0         0         0         0         0         0         0
         0         0         0         0         0         0         0         0
         0         0         0         0         0         0         0         0
         0         0         0         0         0         0         0         0
         0         0         0         0         0         0         0         0
         0         0         0         0         0         0         0         0
         0         0         0         0         0         0         0         0
         0         0         0         0         0         0         0         0
         0         0         0         0         0         0         0         0
         0         0         0         0         0         0         0         0
         0         0         0         0         0         0         0         0
         0         0         0         0         0         0         0         0
         0         0         0         0         0         0         0         0
         0         0         0         0         0         0         0         0
         0         0         0         0         0         0         0         0
         0         0         0         0         0         0         0         0
         0         0         0         0         0         0         0         0
         0         0         0         0         0         0         0         0
         0         0         0         0         0         0         0         0
         0         0         0         0         0         0         0         0
         0         0         0         0         0         0         0         0
         0         0         0         0         0         0         0         0
         0         0         0         0         0         0         0         0
         0         0         0         0         0         0         0         0
         0         0         0         0         0         0         0         0
         0         0         0         0         0         0         0         0
         0         0         0         0         0         0         0         0
         0         0         0         0         0         0         0         0
         0         0         0         0         0         0         0         0
         0         0         0         0         0         0         0         0
         0         0         0         0         0         0         0         0
         0         0         0         0         0         0         0         0
         0         0         0         0         0         0         0         0
         0         0         0         0         0         0         0         0
         0         0         0         0         0         0         0         0
         0         0         0         0         0         0         0         0
         0         0         0         0         0         0         0         0
         0         0         0         0         0         0         0         0
         0         0         0         0         0         0         0         0
         0         0         0         0         0         0         0         0
         0         0         0         0         0         0         0         0
         0         0         0         0         0         0         0         0
         0         0         0         0         0         0         0         0
         0         0         0         0         0         0         0         0
         0         0         0         0         0         0         0         0
         0         0         0         0         0         0         0         0
         0         0         0         0         0         0         0         0
         0         0         0         0         0         0         0         0
         0         0         0         0         0         0         0         0
         0         0         0         0         0         0         0         0
         0         0         0         0         0         0         0         0
         0         0         0         0         0         0         0         0
         0         0         0         0         0         0         0         0
         0         0         0         0         0         0         0         0
         0         0         0         0         0         0         0         0
         0         0         0         0         0         0         0         0
         0         0         0         0         0         0         0         0
         0         0         0         0         0         0         0         0
         0         0         0         0         0         0         0         0
         0         0         0         0         0         0         0         0
         0         0         0         0         0         0         0         0
         0         0         0         0         0         0         0         0
         0         0         0         0         0         0         0         0
         0         0         0         0         0         0         0         0
         0         0         0         0         0         0         0         0
         0         0         0         0         0         0         0         0
         0         0         0         0         0         0         0         0
         0         0         0         0         0         0         0         0
         0         0         0         0         0         0         0         0
         0         0         0         0         0         0         0         0
         0         0         0         0         0         0         0         0
         0         0         0         0         0         0         0         0
         0         0         0         0         0         0         0         0
         0         0         0         0         0         0         0         0
         0         0         0         0         0         0         0         0
         0         0         0         0         0         0         0         0
         0         0         0         0         0         0         0         0
         0         0         0         0         0         0         0         0
         0         0         0         0         0         0         0         0
         0         0         0         0         0         0         0         0
         0         0         0         0         0         0         0         0
         0         0         0         0         0         0         0         0
         0         0         0         0         0         0         0         0
         0         0         0         0         0         0         0         0
         0         0         0         0         0         0         0         0
         0         0         0         0         0         0         0         0
         0         0         0         0

      7000         0 !NGRP NST2
         0         2         0         7         2         0        18         1         0
        26         1         0        35         1         0        38         1         0
        41         1         0        44         1         0        47         1         0
        50         1         0        53         1         0        55         1         0
        57         1         0        60         1         0        63         1         0
        66         1         0        69         1         0        72         1         0
        75         1         0        78         1         0        82         1         0
        85         1         0        88         1         0        91         1         0
        94         1         0        97         1         0       100         1         0
       102         1         0       104         1         0       107         1         0
       110         1         0       113         1         0       116         1         0
       119         1         0       122         1         0       125         1         0
       129         2         0       145         2         0       156         1         0
       160         1         0       164         1         0       166         1         0
       168         1         0       171         1         0       174         1         0
       177         1         0       180         1         0       183         1         0
       186         1         0       189         1         0       192         1         0
       195         1         0       198         1         0       201         1         0
       204         1         0       208         1         0       213         1         0
       216         1         0       219         1         0       222         1         0
       225         1         0       228         1         0       231         1         0
       234         1         0       237         1         0       240         1         0
       243         1         0       246         1         0       249         1         0
       252         1         0       255         1         0       258         1         0
       261         1         0       264         1         0       267         1         0
       270         1         0       273         1         0       277         2         0
       293         2         0       304         1         0       308         1         0
       312         1         0       314         1         0       316         1         0
       319         1         0       322         1         0       325         1         0
       328         1         0       331         1         0       334         1         0
       337         1         0       340         1         0       343         1         0
       346         1         0       349         1         0       352         1         0
       356         1         0       361         1         0       364         1         0
       367         1         0       370         1         0       373         1         0
       376         1         0       379         1         0       382         1         0
       385         1         0       388         1         0       391         1         0
       394         1         0       397         1         0       400         1         0
       403         1         0       406         1         0       409         1         0
       412         1         0       415         1         0       418         1         0
       421         1         0       425         1         0       429         1         0
       432         1         0       435         1         0       438         1         0
       440         1         0       442         1         0       445         1         0
       448         1         0       450         0         0       451         1         0
       455         1         0       458         1         0       461         1         0
       463         0         0       464         1         0       468         1         0
       471         1         0       474         1         0       476         1         0
       480         1         0       483         1         0       486         1         0
       489         1         0       491         1         0       495         1         0
       499         2         0       506         2         0       517         1         0
       525         1         0       534         1         0       537         1         0
       540         1         0       543         1         0       546         1         0
       549         1         0       552         1         0       554         1         0
       556         1         0       559         1         0       562         1         0
       565         1         0       568         1         0       571         1         0
       574         1         0       577         1         0       581         1         0
       584         1         0       587         1         0       590         1         0
       593         1         0       596         1         0       599         1         0
       601         1         0       603         1         0       606         1         0
       609         1         0       612         1         0       615         1         0
       618         1         0       621         1         0       624         1         0
       628         2         0       644         2         0       655         1         0
       663         1         0       672         1         0       675         1         0
       678         1         0       681         1         0       684         1         0
       687         1         0       690         1         0       692         1         0
       694         1         0       697         1         0       700         1         0
       703         1         0       706         1         0       709         1         0
       712         1         0       715         1         0       719         1         0
       722         1         0       725         1         0       728         1         0
       731         1         0       734         1         0       737         1         0
       739         1         0       741         1         0       744         1         0
       747         1         0       750         1         0       753         1         0
       756         1         0       759         1         0       762         1         0
       766         2         0       782         2         0       793         1         0
       801         1         0       810         1         0       813         1         0
       816         1         0       819         1         0       822         1         0
       825         1         0       828         1         0       830         1         0
       832         1         0       835         1         0       838         1         0
       841         1         0       844         1         0       847         1         0
       850         1         0       853         1         0       857         1         0
       860         1         0       863         1         0       866         1         0
       869         1         0       872         1         0       875         1         0
       877         1         0       879         1         0       882         1         0
       885         1         0       888         1         0       891         1         0
       894         1         0       897         1         0       900         1         0
       904         2         0       920         2         0       931         1         0
       939         1         0       948         1         0       951         1         0
       954         1         0       957         1         0       960         1         0
       963         1         0       966         1         0       968         1         0
       970         1         0       973         1         0       976         1         0
       979         1         0       982         1         0       985         1         0
       988         1         0       991         1         0       995         1         0
       998         1         0      1001         1         0      1004         1         0
      1007         1         0      1010         1         0      1013         1         0
      1015         1         0      1017         1         0      1020         1         0
      1023         1         0      1026         1         0      1029         1         0
      1032         1         0      1035         1         0      1038         1         0
      1042         2         0      1049         2         0      1060         1         0
      1068         1         0      1077         1         0      1080         1         0
      1083         1         0      1086         1         0      1089         1         0
      1092         1         0      1095         1         0      1097         1         0
      1099         1         0      1102         1         0      1105         1         0
      1108         1         0      1111         1         0      1114         1         0
      1117         1         0      1120         1         0      1124         1         0
      1127         1         0      1130         1         0      1133         1         0
      1136         1         0      1139         1         0      1142         1         0
      1144         1         0      1146         1         0      1149         1         0
      1152         1         0      1155         1         0      1158         1         0
      1161         1         0      1164         1         0      1167         1         0
      1171         1         0      1175         1         0      1178         1         0
      1181         1         0      1184         1         0      1186         1         0
      1188         1         0      1191         1         0      1194         1         0
      1196         0         0      1197         1         0      1201         1         0
      1204         1         0      1207         1         0      1209         0         0
      1210         1         0      1214         1         0      1217         1         0
      1220         1         0      1222         1         0      1226         1         0
      1229         1         0      1232         1         0      1235         1         0
      1237         1         0      1241         1         0      1245         2         0
      1261         2         0      1272         1         0      1276         1         0
      1280         1         0      1282         1         0      1284         1         0
      1287         1         0      1290         1         0      1293         1         0
      1296         1         0      1299         1         0      1302         1         0
      1305         1         0      1308         1         0      1311         1         0
      1314         1         0      1317         1         0      1320         1         0
      1324         1         0      1329         1         0      1332         1         0
      1335         1         0      1338         1         0      1341         1         0
      1344         1         0      1347         1         0      1350         1         0
      1353         1         0      1356         1         0      1359         1         0
      1362         1         0      1365         1         0      1368         1         0
      1371         1         0      1374         1         0      1377         1         0
      1380         1         0      1383         1         0      1386         1         0
      1389         1         0      1393         2         0      1409         2         0
      1420         1         0      1428         1         0      1437         1         0
      1440         1         0      1443         1         0      1446         1         0
      1449         1         0      1452         1         0      1455         1         0
      1457         1         0      1459         1         0      1462         1         0
      1465         1         0      1468         1         0      1471         1         0
      1474         1         0      1477         1         0      1480         1         0
      1484         1         0      1487         1         0      1490         1         0
      1493         1         0      1496         1         0      1499         1         0
      1502         1         0      1504         1         0      1506         1         0
      1509         1         0      1512         1         0      1515         1         0
      1518         1         0      1521         1         0      1524         1         0
      1527         1         0      1531         2         0      1547         2         0
      1558         1         0      1562         1         0      1566         1         0
      1568         1         0      1570         1         0      1573         1         0
      1576         1         0      1579         1         0      1582         1         0
      1585         1         0      1588         1         0      1591         1         0
      1594         1         0      1597         1         0      1600         1         0
      1603         1         0      1606         1         0      1610         1         0
      1615         1         0      1618         1         0      1621         1         0
      1624         1         0      1627         1         0      1630         1         0
      1633         1         0      1636         1         0      1639         1         0
      1642         1         0      1645         1         0      1648         1         0
      1651         1         0      1654         1         0      1657         1         0
      1660         1         0      1663         1         0      1666         1         0
      1669         1         0      1672         1         0      1675         1         0
      1679         1         0      1683         1         0      1686         1         0
      1689         1         0      1692         1         0      1694         1         0
      1696         1         0      1699         1         0      1702         1         0
      1704         0         0      1705         1         0      1709         1         0
      1712         1         0      1715         1         0      1717         0         0
      1718         1         0      1722         1         0      1725         1         0
      1728         1         0      1730         1         0      1734         1         0
      1737         1         0      1740         1         0      1743         1         0
      1745         1         0      1749         1         0      1753         2         0
      1760         2         0      1771         1         0      1779         1         0
      1788         1         0      1791         1         0      1794         1         0
      1797         1         0      1800         1         0      1803         1         0
      1806         1         0      1808         1         0      1810         1         0
      1813         1         0      1816         1         0      1819         1         0
      1822         1         0      1825         1         0      1828         1         0
      1831         1         0      1835         1         0      1838         1         0
      1841         1         0      1844         1         0      1847         1         0
      1850         1         0      1853         1         0      1855         1         0
      1857         1         0      1860         1         0      1863         1         0
      1866         1         0      1869         1         0      1872         1         0
      1875         1         0      1878         1         0      1882         2         0
      1898         2         0      1909         1         0      1917         1         0
      1926         1         0      1929         1         0      1932         1         0
      1935         1         0      1938         1         0      1941         1         0
      1944         1         0      1946         1         0      1948         1         0
      1951         1         0      1954         1         0      1957         1         0
      1960         1         0      1963         1         0      1966         1         0
      1969         1         0      1973         1         0      1976         1         0
      1979         1         0      1982         1         0      1985         1         0
      1988         1         0      1991         1         0      1993         1         0
      1995         1         0      1998         1         0      2001         1         0
      2004         1         0      2007         1         0      2010         1         0
      2013         1         0      2016         1         0      2020         2         0
      2036         2         0      2047         1         0      2051         1         0
      2055         1         0      2057         1         0      2059         1         0
      2062         1         0      2065         1         0      2068         1         0
      2071         1         0      2074         1         0      2077         1         0
      2080         1         0      2083         1         0      2086         1         0
      2089         1         0      2092         1         0      2095         1         0
      2099         1         0      2104         1         0      2107         1         0
      2110         1         0      2113         1         0      2116         1         0
      2119         1         0      2122         1         0      2125         1         0
      2128         1         0      2131         1         0      2134         1         0
      2137         1         0      2140         1         0      2143         1         0
      2146         1         0      2149         1         0      2152         1         0
      2155         1         0      2158         1         0      2161         1         0
      2164         1         0      2168         2         0      2184         2         0
      2195         1         0      2203         1         0      2212         1         0
      2215         1         0      2218         1         0      2221         1         0
      2224         1         0      2227         1         0      2230         1         0
      2232         1         0      2234         1         0      2237         1         0
      2240         1         0      2243         1         0      2246         1         0
      2249         1         0      2252         1         0      2255         1         0
      2259         1         0      2262         1         0      2265         1         0
      2268         1         0      2271         1         0      2274         1         0
      2277         1         0      2279         1         0      2281         1         0
      2284         1         0      2287         1         0      2290         1         0
      2293         1         0      2296         1         0      2299         1         0
      2302         1         0      2306         2         0      2322         2         0
      2333         1         0      2337         1         0      2341         1         0
      2343         1         0      2345         1         0      2348         1         0
      2351         1         0      2354         1         0      2357         1         0
      2360         1         0      2363         1         0      2366         1         0
      2369         1         0      2372         1         0      2375         1         0
      2378         1         0      2381         1         0      2385         1         0
      2390         1         0      2393         1         0      2396         1         0
      2399         1         0      2402         1         0      2405         1         0
      2408         1         0      2411         1         0      2414         1         0
      2417         1         0      2420         1         0      2423         1         0
      2426         1         0      2429         1         0      2432         1         0
      2435         1         0      2438         1         0      2441         1         0
      2444         1         0      2447         1         0      2450         1         0
      2454         2         0      2461         2         0      2472         1         0
      2480         1         0      2489         1         0      2492         1         0
      2495         1         0      2498         1         0      2501         1         0
      2504         1         0      2507         1         0      2509         1         0
      2511         1         0      2514         1         0      2517         1         0
      2520         1         0      2523         1         0      2526         1         0
      2529         1         0      2532         1         0      2536         1         0
      2539         1         0      2542         1         0      2545         1         0
      2548         1         0      2551         1         0      2554         1         0
      2556         1         0      2558         1         0      2561         1         0
      2564         1         0      2567         1         0      2570         1         0
      2573         1         0      2576         1         0      2579         1         0
      2583         2         0      2599         2         0      2610         1         0
      2618         1         0      2627         1         0      2630         1         0
      2633         1         0      2636         1         0      2639         1         0
      2642         1         0      2645         1         0      2647         1         0
      2649         1         0      2652         1         0      2655         1         0
      2658         1         0      2661         1         0      2664         1         0
      2667         1         0      2670         1         0      2674         1         0
      2677         1         0      2680         1         0      2683         1         0
      2686         1         0      2689         1         0      2692         1         0
      2694         1         0      2696         1         0      2699         1         0
      2702         1         0      2705         1         0      2708         1         0
      2711         1         0      2714         1         0      2717         1         0
      2721         2         0      2737         2         0      2748         1         0
      2756         1         0      2765         1         0      2768         1         0
      2771         1         0      2774         1         0      2777         1         0
      2780         1         0      2783         1         0      2785         1         0
      2787         1         0      2790         1         0      2793         1         0
      2796         1         0      2799         1         0      2802         1         0
      2805         1         0      2808         1         0      2812         1         0
      2815         1         0      2818         1         0      2821         1         0
      2824         1         0      2827         1         0      2830         1         0
      2832         1         0      2834         1         0      2837         1         0
      2840         1         0      2843         1         0      2846         1         0
      2849         1         0      2852         1         0      2855         1         0
      2859         2         0      2875         2         0      2886         1         0
      2890         1         0      2894         1         0      2896         1         0
      2898         1         0      2901         1         0      2904         1         0
      2907         1         0      2910         1         0      2913         1         0
      2916         1         0      2919         1         0      2922         1         0
      2925         1         0      2928         1         0      2931         1         0
      2934         1         0      2938         1         0      2943         1         0
      2946         1         0      2949         1         0      2952         1         0
      2955         1         0      2958         1         0      2961         1         0
      2964         1         0      2967         1         0      2970         1         0
      2973         1         0      2976         1         0      2979         1         0
      2982         1         0      2985         1         0      2988         1         0
      2991         1         0      2994         1         0      2997         1         0
      3000         1         0      3003         1         0      3007         2         0
      3023         2         0      3034         1         0      3042         1         0
      3051         1         0      3054         1         0      3057         1         0
      3060         1         0      3063         1         0      3066         1         0
      3069         1         0      3071         1         0      3073         1         0
      3076         1         0      3079         1         0      3082         1         0
      3085         1         0      3088         1         0      3091         1         0
      3094         1         0      3098         1         0      3101         1         0
      3104         1         0      3107         1         0      3110         1         0
      3113         1         0      3116         1         0      3118         1         0
      3120         1         0      3123         1         0      3126         1         0
      3129         1         0      3132         1         0      3135         1         0
      3138         1         0      3141         1         0      3145         2         0
      3152         2         0      3163         1         0      3171         1         0
      3180         1         0      3183         1         0      3186         1         0
      3189         1         0      3192         1         0      3195         1         0
      3198         1         0      3200         1         0      3202         1         0
      3205         1         0      3208         1         0      3211         1         0
      3214         1         0      3217         1         0      3220         1         0
      3223         1         0      3227         1         0      3230         1         0
      3233         1         0      3236         1         0      3239         1         0
      3242         1         0      3245         1         0      3247         1         0
      3249         1         0      3252         1         0      3255         1         0
      3258         1         0      3261         1         0      3264         1         0
      3267         1         0      3270         1         0      3274         2         0
      3281         2         0      3292         1         0      3300         1         0
      3309         1         0      3312         1         0      3315         1         0
      3318         1         0      3321         1         0      3324         1         0
      3327         1         0      3329         1         0      3331         1         0
      3334         1         0      3337         1         0      3340         1         0
      3343         1         0      3346         1         0      3349         1         0
      3352         1         0      3356         1         0      3359         1         0
      3362         1         0      3365         1         0      3368         1         0
      3371         1         0      3374         1         0      3376         1         0
      3378         1         0      3381         1         0      3384         1         0
      3387         1         0      3390         1         0      3393         1         0
      3396         1         0      3399         1         0      3403         2         0
      3410         2         0      3421         1         0      3429         1         0
      3438         1         0      3441         1         0      3444         1         0
      3447         1         0      3450         1         0      3453         1         0
      3456         1         0      3458         1         0      3460         1         0
      3463         1         0      3466         1         0      3469         1         0
      3472         1         0      3475         1         0      3478         1         0
      3481         1         0      3485         1         0      3488         1         0
      3491         1         0      3494         1         0      3497         1         0
      3500         1         0      3503         1         0      3505         1         0
      3507         1         0      3510         1         0      3513         1         0
      3516         1         0      3519         1         0      3522         1         0
      3525         1         0      3528         1         0      3532         1         0
      3536         1         0      3539         1         0      3542         1         0
      3545         1         0      3547         1         0      3549         1         0
      3552         1         0      3555         1         0      3557         0         0
      3558         1         0      3562         1         0      3565         1         0
      3568         1         0      3570         0         0      3571         1         0
      3575         1         0      3578         1         0      3581         1         0
      3583         1         0      3587         1         0      3590         1         0
      3593         1         0      3596         1         0      3598         1         0
      3602         1         0      3606         1         0      3610         1         0
      3613         1         0      3616         1         0      3619         1         0
      3621         1         0      3623         1         0      3626         1         0
      3629         1         0      3631         0         0      3632         1         0
      3636         1         0      3639         1         0      3642         1         0
      3644         0         0      3645         1         0      3649         1         0
      3652         1         0      3655         1         0      3657         1         0
      3661         1         0      3664         1         0      3667         1         0
      3670         1         0      3672         1         0      3676         1         0
      3680         2         0      3696         2         0      3707         1         0
      3711         1         0      3715         1         0      3717         1         0
      3719         1         0      3722         1         0      3725         1         0
      3728         1         0      3731         1         0      3734         1         0
      3737         1         0      3740         1         0      3743         1         0
      3746         1         0      3749         1         0      3752         1         0
      3755         1         0      3759         1         0      3764         1         0
      3767         1         0      3770         1         0      3773         1         0
      3776         1         0      3779         1         0      3782         1         0
      3785         1         0      3788         1         0      3791         1         0
      3794         1         0      3797         1         0      3800         1         0
      3803         1         0      3806         1         0      3809         1         0
      3812         1         0      3815         1         0      3818         1         0
      3821         1         0      3824         1         0      3828         2         0
      3844         2         0      3855         1         0      3859         1         0
      3863         1         0      3865         1         0      3867         1         0
      3870         1         0      3873         1         0      3876         1         0
      3879         1         0      3882         1         0      3885         1         0
      3888         1         0      3891         1         0      3894         1         0
      3897         1         0      3900         1         0      3903         1         0
      3907         1         0      3912         1         0      3915         1         0
      3918         1         0      3921         1         0      3924         1         0
      3927         1         0      3930         1         0      3933         1         0
      3936         1         0      3939         1         0      3942         1         0
      3945         1         0      3948         1         0      3951         1         0
      3954         1         0      3957         1         0      3960         1         0
      3963         1         0      3966         1         0      3969         1         0
      3972         1         0      3976         1         0      3980         1         0
      3983         1         0      3986         1         0      3989         1         0
      3991         1         0      3993         1         0      3996         1         0
      3999         1         0      4001         0         0      4002         1         0
      4006         1         0      4009         1         0      4012         1         0
      4014         0         0      4015         1         0      4019         1         0
      4022         1         0      4025         1         0      4027         1         0
      4031         1         0      4034         1         0      4037         1         0
      4040         1         0      4042         1         0      4046         1         0
      4050         2         0      4066         2         0      4077         1         0
      4081         1         0      4085         1         0      4087         1         0
      4089         1         0      4092         1         0      4095         1         0
      4098         1         0      4101         1         0      4104         1         0
      4107         1         0      4110         1         0      4113         1         0
      4116         1         0      4119         1         0      4122         1         0
      4125         1         0      4129         1         0      4134         1         0
      4137         1         0      4140         1         0      4143         1         0
      4146         1         0      4149         1         0      4152         1         0
      4155         1         0      4158         1         0      4161         1         0
      4164         1         0      4167         1         0      4170         1         0
      4173         1         0      4176         1         0      4179         1         0
      4182         1         0      4185         1         0      4188         1         0
      4191         1         0      4194         1         0      4198         1         0
      4202         1         0      4205         1         0      4208         1         0
      4211         1         0      4213         1         0      4215         1         0
      4218         1         0      4221         1         0      4223         0         0
      4224         1         0      4228         1         0      4231         1         0
      4234         1         0      4236         0         0      4237         1         0
      4241         1         0      4244         1         0      4247         1         0
      4249         1         0      4253         1         0      4256         1         0
      4259         1         0      4262         1         0      4264         1         0
      4268         1         0      4272         2         0      4288         2         0
      4299         1         0      4307         1         0      4316         1         0
      4319         1         0      4322         1         0      4325         1         0
      4328         1         0      4331         1         0      4334         1         0
      4336         1         0      4338         1         0      4341         1         0
      4344         1         0      4347         1         0      4350         1         0
      4353         1         0      4356         1         0      4359         1         0
      4363         1         0      4366         1         0      4369         1         0
      4372         1         0      4375         1         0      4378         1         0
      4381         1         0      4383         1         0      4385         1         0
      4388         1         0      4391         1         0      4394         1         0
      4397         1         0      4400         1         0      4403         1         0
      4406         1         0      4410         1         0      4414         1         0
      4417         1         0      4420         1         0      4423         1         0
      4425         1         0      4427         1         0      4430         1         0
      4433         1         0      4435         0         0      4436         1         0
      4440         1         0      4443         1         0      4446         1         0
      4448         0         0      4449         1         0      4453         1         0
      4456         1         0      4459         1         0      4461         1         0
      4465         1         0      4468         1         0      4471         1         0
      4474         1         0      4476         1         0      4480         1         0
      4484         2         0      4500         2         0      4511         1         0
      4519         1         0      4528         1         0      4531         1         0
      4534         1         0      4537         1         0      4540         1         0
      4543         1         0      4546         1         0      4548         1         0
      4550         1         0      4553         1         0      4556         1         0
      4559         1         0      4562         1         0      4565         1         0
      4568         1         0      4571         1         0      4575         1         0
      4578         1         0      4581         1         0      4584         1         0
      4587         1         0      4590         1         0      4593         1         0
      4595         1         0      4597         1         0      4600         1         0
      4603         1         0      4606         1         0      4609         1         0
      4612         1         0      4615         1         0      4618         1         0
      4622         2         0      4638         2         0      4649         1         0
      4657         1         0      4666         1         0      4669         1         0
      4672         1         0      4675         1         0      4678         1         0
      4681         1         0      4684         1         0      4686         1         0
      4688         1         0      4691         1         0      4694         1         0
      4697         1         0      4700         1         0      4703         1         0
      4706         1         0      4709         1         0      4713         1         0
      4716         1         0      4719         1         0      4722         1         0
      4725         1         0      4728         1         0      4731         1         0
      4733         1         0      4735         1         0      4738         1         0
      4741         1         0      4744         1         0      4747         1         0
      4750         1         0      4753         1         0      4756         1         0
      4760         2         0      4767         2         0      4778         1         0
      4786         1         0      4795         1         0      4798         1         0
      4801         1         0      4804         1         0      4807         1         0
      4810         1         0      4813         1         0      4815         1         0
      4817         1         0      4820         1         0      4823         1         0
      4826         1         0      4829         1         0      4832         1         0
      4835         1         0      4838         1         0      4842         1         0
      4845         1         0      4848         1         0      4851         1         0
      4854         1         0      4857         1         0      4860         1         0
      4862         1         0      4864         1         0      4867         1         0
      4870         1         0      4873         1         0      4876         1         0
      4879         1         0      4882         1         0      4885         1         0
      4889         1         0      4893         1         0      4896         1         0
      4899         1         0      4902         1         0      4904         1         0
      4906         1         0      4909         1         0      4912         1         0
      4914         0         0      4915         1         0      4919         1         0
      4922         1         0      4925         1         0      4927         0         0
      4928         1         0      4932         1         0      4935         1         0
      4938         1         0      4940         1         0      4944         1         0
      4947         1         0      4950         1         0      4953         1         0
      4955         1         0      4959         1         0      4963         2         0
      4970         2         0      4981         1         0      4989         1         0
      4998         1         0      5001         1         0      5004         1         0
      5007         1         0      5010         1         0      5013         1         0
      5016         1         0      5018         1         0      5020         1         0
      5023         1         0      5026         1         0      5029         1         0
      5032         1         0      5035         1         0      5038         1         0
      5041         1         0      5045         1         0      5048         1         0
      5051         1         0      5054         1         0      5057         1         0
      5060         1         0      5063         1         0      5065         1         0
      5067         1         0      5070         1         0      5073         1         0
      5076         1         0      5079         1         0      5082         1         0
      5085         1         0      5088         1         0      5092         2         0
      5099         2         0      5110         1         0      5118         1         0
      5127         1         0      5130         1         0      5133         1         0
      5136         1         0      5139         1         0      5142         1         0
      5145         1         0      5147         1         0      5149         1         0
      5152         1         0      5155         1         0      5158         1         0
      5161         1         0      5164         1         0      5167         1         0
      5170         1         0      5174         1         0      5177         1         0
      5180         1         0      5183         1         0      5186         1         0
      5189         1         0      5192         1         0      5194         1         0
      5196         1         0      5199         1         0      5202         1         0
      5205         1         0      5208         1         0      5211         1         0
      5214         1         0      5217         1         0      5221         2         0
      5237         2         0      5248         1         0      5256         1         0
      5265         1         0      5268         1         0      5271         1         0
      5274         1         0      5277         1         0      5280         1         0
      5283         1         0      5285         1         0      5287         1         0
      5290         1         0      5293         1         0      5296         1         0
      5299         1         0      5302         1         0      5305         1         0
      5308         1         0      5312         1         0      5315         1         0
      5318         1         0      5321         1         0      5324         1         0
      5327         1         0      5330         1         0      5332         1         0
      5334         1         0      5337         1         0      5340         1         0
      5343         1         0      5346         1         0      5349         1         0
      5352         1         0      5355         1         0      5359         2         0
      5366         2         0      5377         1         0      5385         1         0
      5394         1         0      5397         1         0      5400         1         0
      5403         1         0      5406         1         0      5409         1         0
      5412         1         0      5414         1         0      5416         1         0
      5419         1         0      5422         1         0      5425         1         0
      5428         1         0      5431         1         0      5434         1         0
      5437         1         0      5441         1         0      5444         1         0
      5447         1         0      5450         1         0      5453         1         0
      5456         1         0      5459         1         0      5461         1         0
      5463         1         0      5466         1         0      5469         1         0
      5472         1         0      5475         1         0      5478         1         0
      5481         1         0      5484         1         0      5488         2         0
      5504         2         0      5515         1         0      5523         1         0
      5532         1         0      5535         1         0      5538         1         0
      5541         1         0      5544         1         0      5547         1         0
      5550         1         0      5552         1         0      5554         1         0
      5557         1         0      5560         1         0      5563         1         0
      5566         1         0      5569         1         0      5572         1         0
      5575         1         0      5579         1         0      5582         1         0
      5585         1         0      5588         1         0      5591         1         0
      5594         1         0      5597         1         0      5599         1         0
      5601         1         0      5604         1         0      5607         1         0
      5610         1         0      5613         1         0      5616         1         0
      5619         1         0      5622         1         0      5626         2         0
      5633         2         0      5644         1         0      5652         1         0
      5661         1         0      5664         1         0      5667         1         0
      5670         1         0      5673         1         0      5676         1         0
      5679         1         0      5681         1         0      5683         1         0
      5686         1         0      5689         1         0      5692         1         0
      5695         1         0      5698         1         0      5701         1         0
      5704         1         0      5708         1         0      5711         1         0
      5714         1         0      5717         1         0      5720         1         0
      5723         1         0      5726         1         0      5728         1         0
      5730         1         0      5733         1         0      5736         1         0
      5739         1         0      5742         1         0      5745         1         0
      5748         1         0      5751         1         0      5755         2         0
      5771         2         0      5782         1         0      5790         1         0
      5799         1         0      5802         1         0      5805         1         0
      5808         1         0      5811         1         0      5814         1         0
      5817         1         0      5819         1         0      5821         1         0
      5824         1         0      5827         1         0      5830         1         0
      5833         1         0      5836         1         0      5839         1         0
      5842         1         0      5846         1         0      5849         1         0
      5852         1         0      5855         1         0      5858         1         0
      5861         1         0      5864         1         0      5866         1         0
      5868         1         0      5871         1         0      5874         1         0
      5877         1         0      5880         1         0      5883         1         0
      5886         1         0      5889         1         0      5893         1         0
      5897         1         0      5900         1         0      5903         1         0
      5906         1         0      5908         1         0      5910         1         0
      5913         1         0      5916         1         0      5918         0         0
      5919         1         0      5923         1         0      5926         1         0
      5929         1         0      5931         0         0      5932         1         0
      5936         1         0      5939         1         0      5942         1         0
      5944         1         0      5948         1         0      5951         1         0
      5954         1         0      5957         1         0      5959         1         0
      5963         1         0      5967         2         0      5983         2         0
      5994         1         0      5998         1         0      6002         1         0
      6004         1         0      6006         1         0      6009         1         0
      6012         1         0      6015         1         0      6018         1         0
      6021         1         0      6024         1         0      6027         1         0
      6030         1         0      6033         1         0      6036         1         0
      6039         1         0      6042         1         0      6046         1         0
      6051         1         0      6054         1         0      6057         1         0
      6060         1         0      6063         1         0      6066         1         0
      6069         1         0      6072         1         0      6075         1         0
      6078         1         0      6081         1         0      6084         1         0
      6087         1         0      6090         1         0      6093         1         0
      6096         1         0      6099         1         0      6102         1         0
      6105         1         0      6108         1         0      6111         1         0
      6115         2         0      6131         2         0      6142         1         0
      6146         1         0      6150         1         0      6152         1         0
      6154         1         0      6157         1         0      6160         1         0
      6163         1         0      6166         1         0      6169         1         0
      6172         1         0      6175         1         0      6178         1         0
      6181         1         0      6184         1         0      6187         1         0
      6190         1         0      6194         1         0      6199         1         0
      6202         1         0      6205         1         0      6208         1         0
      6211         1         0      6214         1         0      6217         1         0
      6220         1         0      6223         1         0      6226         1         0
      6229         1         0      6232         1         0      6235         1         0
      6238         1         0      6241         1         0      6244         1         0
      6247         1         0      6250         1         0      6253         1         0
      6256         1         0      6259         1         0      6263         2         0
      6270         2         0      6281         1         0      6289         1         0
      6298         1         0      6301         1         0      6304         1         0
      6307         1         0      6310         1         0      6313         1         0
      6316         1         0      6318         1         0      6320         1         0
      6323         1         0      6326         1         0      6329         1         0
      6332         1         0      6335         1         0      6338         1         0
      6341         1         0      6345         1         0      6348         1         0
      6351         1         0      6354         1         0      6357         1         0
      6360         1         0      6363         1         0      6365         1         0
      6367         1         0      6370         1         0      6373         1         0
      6376         1         0      6379         1         0      6382         1         0
      6385         1         0      6388         1         0      6392         2         0
      6408         2         0      6419         1         0      6427         1         0
      6436         1         0      6439         1         0      6442         1         0
      6445         1         0      6448         1         0      6451         1         0
      6454         1         0      6456         1         0      6458         1         0
      6461         1         0      6464         1         0      6467         1         0
      6470         1         0      6473         1         0      6476         1         0
      6479         1         0      6483         1         0      6486         1         0
      6489         1         0      6492         1         0      6495         1         0
      6498         1         0      6501         1         0      6503         1         0
      6505         1         0      6508         1         0      6511         1         0
      6514         1         0      6517         1         0      6520         1         0
      6523         1         0      6526         1         0      6530         2         0
      6546         2         0      6557         1         0      6561         1         0
      6565         1         0      6567         1         0      6569         1         0
      6572         1         0      6575         1         0      6578         1         0
      6581         1         0      6584         1         0      6587         1         0
      6590         1         0      6593         1         0      6596         1         0
      6599         1         0      6602         1         0      6605         1         0
      6609         1         0      6614         1         0      6617         1         0
      6620         1         0      6623         1         0      6626         1         0
      6629         1         0      6632         1         0      6635         1         0
      6638         1         0      6641         1         0      6644         1         0
      6647         1         0      6650         1         0      6653         1         0
      6656         1         0      6659         1         0      6662         1         0
      6665         1         0      6668         1         0      6671         1         0
      6674         1         0      6678         2         0      6694         2         0
      6705         1         0      6713         1         0      6722         1         0
      6725         1         0      6728         1         0      6731         1         0
      6734         1         0      6737         1         0      6740         1         0
      6742         1         0      6744         1         0      6747         1         0
      6750         1         0      6753         1         0      6756         1         0
      6759         1         0      6762         1         0      6765         1         0
      6769         1         0      6772         1         0      6775         1         0
      6778         1         0      6781         1         0      6784         1         0
      6787         1         0      6789         1         0      6791         1         0
      6794         1         0      6797         1         0      6800         1         0
      6803         1         0      6806         1         0      6809         1         0
      6812         1         0      6816         1         0      6820         1         0
      6823         1         0      6826         1         0      6829         1         0
      6831         1         0      6833         1         0      6836         1         0
      6839         1         0      6841         0         0      6842         1         0
      6846         1         0      6849         1         0      6852         1         0
      6854         0         0      6855         1         0      6859         1         0
      6862         1         0      6865         1         0      6867         1         0
      6871         1         0      6874         1         0      6877         1         0
      6880         1         0      6882         1         0      6886         1         0
      6890         2         0      6897         2         0      6908         1         0
      6916         1         0      6925         1         0      6928         1         0
      6931         1         0      6934         1         0      6937         1         0
      6940         1         0      6943         1         0      6945         1         0
      6947         1         0      6950         1         0      6953         1         0
      6956         1         0      6959         1         0      6962         1         0
      6965         1         0      6968         1         0      6972         1         0
      6975         1         0      6978         1         0      6981         1         0
      6984         1         0      6987         1         0      6990         1         0
      6992         1         0      6994         1         0      6997         1         0
      7000         1         0      7003         1         0      7006         1         0
      7009         1         0      7012         1         0      7015         1         0
      7019         1         0      7023         1         0      7026         1         0
      7029         1         0      7032         1         0      7034         1         0
      7036         1         0      7039         1         0      7042         1         0
      7044         0         0      7045         1         0      7049         1         0
      7052         1         0      7055         1         0      7057         0         0
      7058         1         0      7062         1         0      7065         1         0
      7068         1         0      7070         1         0      7074         1         0
      7077         1         0      7080         1         0      7083         1         0
      7085         1         0      7089         1         0      7093         2         0
      7109         2         0      7120         1         0      7128         1         0
      7137         1         0      7140         1         0      7143         1         0
      7146         1         0      7149         1         0      7152         1         0
      7155         1         0      7157         1         0      7159         1         0
      7162         1         0      7165         1         0      7168         1         0
      7171         1         0      7174         1         0      7177         1         0
      7180         1         0      7184         1         0      7187         1         0
      7190         1         0      7193         1         0      7196         1         0
      7199         1         0      7202         1         0      7204         1         0
      7206         1         0      7209         1         0      7212         1         0
      7215         1         0      7218         1         0      7221         1         0
      7224         1         0      7227         1         0      7231         2         0
      7247         2         0      7258         1         0      7262         1         0
      7266         1         0      7268         1         0      7270         1         0
      7273         1         0      7276         1         0      7279         1         0
      7282         1         0      7285         1         0      7288         1         0
      7291         1         0      7294         1         0      7297         1         0
      7300         1         0      7303         1         0      7306         1         0
      7310         1         0      7315         1         0      7318         1         0
      7321         1         0      7324         1         0      7327         1         0
      7330         1         0      7333         1         0      7336         1         0
      7339         1         0      7342         1         0      7345         1         0
      7348         1         0      7351         1         0      7354         1         0
      7357         1         0      7360         1         0      7363         1         0
      7366         1         0      7369         1         0      7372         1         0
      7375         1         0      7379         2         0      7395         2         0
      7406         1         0      7410         1         0      7414         1         0
      7416         1         0      7418         1         0      7421         1         0
      7424         1         0      7427         1         0      7430         1         0
      7433         1         0      7436         1         0      7439         1         0
      7442         1         0      7445         1         0      7448         1         0
      7451         1         0      7454         1         0      7458         1         0
      7463         1         0      7466         1         0      7469         1         0
      7472         1         0      7475         1         0      7478         1         0
      7481         1         0      7484         1         0      7487         1         0
      7490         1         0      7493         1         0      7496         1         0
      7499         1         0      7502         1         0      7505         1         0
      7508         1         0      7511         1         0      7514         1         0
      7517         1         0      7520         1         0      7523         1         0
      7527         2         0      7534         2         0      7545         1         0
      7553         1         0      7562         1         0      7565         1         0
      7568         1         0      7571         1         0      7574         1         0
      7577         1         0      7580         1         0      7582         1         0
      7584         1         0      7587         1         0      7590         1         0
      7593         1         0      7596         1         0      7599         1         0
      7602         1         0      7605         1         0      7609         1         0
      7612         1         0      7615         1         0      7618         1         0
      7621         1         0      7624         1         0      7627         1         0
      7629         1         0      7631         1         0      7634         1         0
      7637         1         0      7640         1         0      7643         1         0
      7646         1         0      7649         1         0      7652         1         0
      7656         2         0      7672         2         0      7683         1         0
      7691         1         0      7700         1         0      7703         1         0
      7706         1         0      7709         1         0      7712         1         0
      7715         1         0      7718         1         0      7720         1         0
      7722         1         0      7725         1         0      7728         1         0
      7731         1         0      7734         1         0      7737         1         0
      7740         1         0      7743         1         0      7747         1         0
      7750         1         0      7753         1         0      7756         1         0
      7759         1         0      7762         1         0      7765         1         0
      7767         1         0      7769         1         0      7772         1         0
      7775         1         0      7778         1         0      7781         1         0
      7784         1         0      7787         1         0      7790         1         0
      7794         2         0      7810         2         0      7821         1         0
      7829         1         0      7838         1         0      7841         1         0
      7844         1         0      7847         1         0      7850         1         0
      7853         1         0      7856         1         0      7858         1         0
      7860         1         0      7863         1         0      7866         1         0
      7869         1         0      7872         1         0      7875         1         0
      7878         1         0      7881         1         0      7885         1         0
      7888         1         0      7891         1         0      7894         1         0
      7897         1         0      7900         1         0      7903         1         0
      7905         1         0      7907         1         0      7910         1         0
      7913         1         0      7916         1         0      7919         1         0
      7922         1         0      7925         1         0      7928         1         0
      7932         1         0      7936         1         0      7939         1         0
      7942         1         0      7945         1         0      7947         1         0
      7949         1         0      7952         1         0      7955         1         0
      7957         0         0      7958         1         0      7962         1         0
      7965         1         0      7968         1         0      7970         0         0
      7971         1         0      7975         1         0      7978         1         0
      7981         1         0      7983         1         0      7987         1         0
      7990         1         0      7993         1         0      7996         1         0
      7998         1         0      8002         1         0      8006         2         0
      8013         2         0      8024         1         0      8032         1         0
      8041         1         0      8044         1         0      8047         1         0
      8050         1         0      8053         1         0      8056         1         0
      8059         1         0      8061         1         0      8063         1         0
      8066         1         0      8069         1         0      8072         1         0
      8075         1         0      8078         1         0      8081         1         0
      8084         1         0      8088         1         0      8091         1         0
      8094         1         0      8097         1         0      8100         1         0
      8103         1         0      8106         1         0      8108         1         0
      8110         1         0      8113         1         0      8116         1         0
      8119         1         0      8122         1         0      8125         1         0
      8128         1         0      8131         1         0      8135         2         0
      8151         2         0      8162         1         0      8170         1         0
      8179         1         0      8182         1         0      8185         1         0
      8188         1         0      8191         1         0      8194         1         0
      8197         1         0      8199         1         0      8201         1         0
      8204         1         0      8207         1         0      8210         1         0
      8213         1         0      8216         1         0      8219         1         0
      8222         1         0      8226         1         0      8229         1         0
      8232         1         0      8235         1         0      8238         1         0
      8241         1         0      8244         1         0      8246         1         0
      8248         1         0      8251         1         0      8254         1         0
      8257         1         0      8260         1         0      8263         1         0
      8266         1         0      8269         1         0      8273         2         0
      8289         2         0      8300         1         0      8308         1         0
      8317         1         0      8320         1         0      8323         1         0
      8326         1         0      8329         1         0      8332         1         0
      8335         1         0      8337         1         0      8339         1         0
      8342         1         0      8345         1         0      8348         1         0
      8351         1         0      8354         1         0      8357         1         0
      8360         1         0      8364         1         0      8367         1         0
      8370         1         0      8373         1         0      8376         1         0
      8379         1         0      8382         1         0      8384         1         0
      8386         1         0      8389         1         0      8392         1         0
      8395         1         0      8398         1         0      8401         1         0
      8404         1         0      8407         1         0      8411         2         0
      8427         2         0      8438         1         0      8446         1         0
      8455         1         0      8458         1         0      8461         1         0
      8464         1         0      8467         1         0      8470         1         0
      8473         1         0      8475         1         0      8477         1         0
      8480         1         0      8483         1         0      8486         1         0
      8489         1         0      8492         1         0      8495         1         0
      8498         1         0      8502         1         0      8505         1         0
      8508         1         0      8511         1         0      8514         1         0
      8517         1         0      8520         1         0      8522         1         0
      8524         1         0      8527         1         0      8530         1         0
      8533         1         0      8536         1         0      8539         1         0
      8542         1         0      8545         1         0      8549         2         0
      8556         2         0      8567         1         0      8575         1         0
      8584         1         0      8587         1         0      8590         1         0
      8593         1         0      8596         1         0      8599         1         0
      8602         1         0      8604         1         0      8606         1         0
      8609         1         0      8612         1         0      8615         1         0
      8618         1         0      8621         1         0      8624         1         0
      8627         1         0      8631         1         0      8634         1         0
      8637         1         0      8640         1         0      8643         1         0
      8646         1         0      8649         1         0      8651         1         0
      8653         1         0      8656         1         0      8659         1         0
      8662         1         0      8665         1         0      8668         1         0
      8671         1         0      8674         1         0      8678         2         0
      8685         2         0      8696         1         0      8704         1         0
      8713         1         0      8716         1         0      8719         1         0
      8722         1         0      8725         1         0      8728         1         0
      8731         1         0      8733         1         0      8735         1         0
      8738         1         0      8741         1         0      8744         1         0
      8747         1         0      8750         1         0      8753         1         0
      8756         1         0      8760         1         0      8763         1         0
      8766         1         0      8769         1         0      8772         1         0
      8775         1         0      8778         1         0      8780         1         0
      8782         1         0      8785         1         0      8788         1         0
      8791         1         0      8794         1         0      8797         1         0
      8800         1         0      8803         1         0      8807         1         0
      8811         1         0      8814         1         0      8817         1         0
      8820         1         0      8822         1         0      8824         1         0
      8827         1         0      8830         1         0      8832         0         0
      8833         1         0      8837         1         0      8840         1         0
      8843         1         0      8845         0         0      8846         1         0
      8850         1         0      8853         1         0      8856         1         0
      8858         1         0      8862         1         0      8865         1         0
      8868         1         0      8871         1         0      8873         1         0
      8877         1         0      8881         2         0      8888         2         0
      8899         1         0      8907         1         0      8916         1         0
      8919         1         0      8922         1         0      8925         1         0
      8928         1         0      8931         1         0      8934         1         0
      8936         1         0      8938         1         0      8941         1         0
      8944         1         0      8947         1         0      8950         1         0
      8953         1         0      8956         1         0      8959         1         0
      8963         1         0      8966         1         0      8969         1         0
      8972         1         0      8975         1         0      8978         1         0
      8981         1         0      8983         1         0      8985         1         0
      8988         1         0      8991         1         0      8994         1         0
      8997         1         0      9000         1         0      9003         1         0
      9006         1         0      9010         1         0      9014         1         0
      9017         1         0      9020         1         0      9023         1         0
      9025         1         0      9027         1         0      9030         1         0
      9033         1         0      9035         0         0      9036         1         0
      9040         1         0      9043         1         0      9046         1         0
      9048         0         0      9049         1         0      9053         1         0
      9056         1         0      9059         1         0      9061         1         0
      9065         1         0      9068         1         0      9071         1         0
      9074         1         0      9076         1         0      9080         1         0
      9084         1         0      9088         1         0      9091         1         0
      9094         1         0      9097         1         0      9099         1         0
      9101         1         0      9104         1         0      9107         1         0
      9109         0         0      9110         1         0      9114         1         0
      9117         1         0      9120         1         0      9122         0         0
      9123         1         0      9127         1         0      9130         1         0
      9133         1         0      9135         1         0      9139         1         0
      9142         1         0      9145         1         0      9148         1         0
      9150         1         0      9154         1         0      9158         2         0
      9165         2         0      9176         1         0      9184         1         0
      9193         1         0      9196         1         0      9199         1         0
      9202         1         0      9205         1         0      9208         1         0
      9211         1         0      9213         1         0      9215         1         0
      9218         1         0      9221         1         0      9224         1         0
      9227         1         0      9230         1         0      9233         1         0
      9236         1         0      9240         1         0      9243         1         0
      9246         1         0      9249         1         0      9252         1         0
      9255         1         0      9258         1         0      9260         1         0
      9262         1         0      9265         1         0      9268         1         0
      9271         1         0      9274         1         0      9277         1         0
      9280         1         0      9283         1         0      9287         2         0
      9303         2         0      9314         1         0      9322         1         0
      9331         1         0      9334         1         0      9337         1         0
      9340         1         0      9343         1         0      9346         1         0
      9349         1         0      9351         1         0      9353         1         0
      9356         1         0      9359         1         0      9362         1         0
      9365         1         0      9368         1         0      9371         1         0
      9374         1         0      9378         1         0      9381         1         0
      9384         1         0      9387         1         0      9390         1         0
      9393         1         0      9396         1         0      9398         1         0
      9400         1         0      9403         1         0      9406         1         0
      9409         1         0      9412         1         0      9415         1         0
      9418         1         0      9421         1         0      9425         2         0
      9441         2         0      9452         1         0      9460         1         0
      9469         1         0      9472         1         0      9475         1         0
      9478         1         0      9481         1         0      9484         1         0
      9487         1         0      9489         1         0      9491         1         0
      9494         1         0      9497         1         0      9500         1         0
      9503         1         0      9506         1         0      9509         1         0
      9512         1         0      9516         1         0      9519         1         0
      9522         1         0      9525         1         0      9528         1         0
      9531         1         0      9534         1         0      9536         1         0
      9538         1         0      9541         1         0      9544         1         0
      9547         1         0      9550         1         0      9553         1         0
      9556         1         0      9559         1         0      9563         2         0
      9570         2         0      9581         1         0      9589         1         0
      9598         1         0      9601         1         0      9604         1         0
      9607         1         0      9610         1         0      9613         1         0
      9616         1         0      9618         1         0      9620         1         0
      9623         1         0      9626         1         0      9629         1         0
      9632         1         0      9635         1         0      9638         1         0
      9641         1         0      9645         1         0      9648         1         0
      9651         1         0      9654         1         0      9657         1         0
      9660         1         0      9663         1         0      9665         1         0
      9667         1         0      9670         1         0      9673         1         0
      9676         1         0      9679         1         0      9682         1         0
      9685         1         0      9688         1         0      9692         2         0
      9699         2         0      9710         1         0      9718         1         0
      9727         1         0      9730         1         0      9733         1         0
      9736         1         0      9739         1         0      9742         1         0
      9745         1         0      9747         1         0      9749         1         0
      9752         1         0      9755         1         0      9758         1         0
      9761         1         0      9764         1         0      9767         1         0
      9770         1         0      9774         1         0      9777         1         0
      9780         1         0      9783         1         0      9786         1         0
      9789         1         0      9792         1         0      9794         1         0
      9796         1         0      9799         1         0      9802         1         0
      9805         1         0      9808         1         0      9811         1         0
      9814         1         0      9817         1         0      9821         2         0
      9837         2         0      9848         1         0      9852         1         0
      9856         1         0      9858         1         0      9860         1         0
      9863         1         0      9866         1         0      9869         1         0
      9872         1         0      9875         1         0      9878         1         0
      9881         1         0      9884         1         0      9887         1         0
      9890         1         0      9893         1         0      9896         1         0
      9900         1         0      9905         1         0      9908         1         0
      9911         1         0      9914         1         0      9917         1         0
      9920         1         0      9923         1         0      9926         1         0
      9929         1         0      9932         1         0      9935         1         0
      9938         1         0      9941         1         0      9944         1         0
      9947         1         0      9950         1         0      9953         1         0
      9956         1         0      9959         1         0      9962         1         0
      9965         1         0      9969         1         0      9973         1         0
      9976         1         0      9979         1         0      9982         1         0
      9984         1         0      9986         1         0      9989         1         0
      9992         1         0      9994         0         0      9995         1         0
      9999         1         0     10002         1         0     10005         1         0
     10007         0         0     10008         1         0     10012         1         0
     10015         1         0     10018         1         0     10020         1         0
     10024         1         0     10027         1         0     10030         1         0
     10033         1         0     10035         1         0     10039         1         0
     10043         2         0     10050         2         0     10061         1         0
     10069         1         0     10078         1         0     10081         1         0
     10084         1         0     10087         1         0     10090         1         0
     10093         1         0     10096         1         0     10098         1         0
     10100         1         0     10103         1         0     10106         1         0
     10109         1         0     10112         1         0     10115         1         0
     10118         1         0     10121         1         0     10125         1         0
     10128         1         0     10131         1         0     10134         1         0
     10137         1         0     10140         1         0     10143         1         0
     10145         1         0     10147         1         0     10150         1         0
     10153         1         0     10156         1         0     10159         1         0
     10162         1         0     10165         1         0     10168         1         0
     10172         2         0     10188         2         0     10199         1         0
     10207         1         0     10216         1         0     10219         1         0
     10222         1         0     10225         1         0     10228         1         0
     10231         1         0     10234         1         0     10236         1         0
     10238         1         0     10241         1         0     10244         1         0
     10247         1         0     10250         1         0     10253         1         0
     10256         1         0     10259         1         0     10263         1         0
     10266         1         0     10269         1         0     10272         1         0
     10275         1         0     10278         1         0     10281         1         0
     10283         1         0     10285         1         0     10288         1         0
     10291         1         0     10294         1         0     10297         1         0
     10300         1         0     10303         1         0     10306         1         0
     10310         2         0     10326         2         0     10337         1         0
     10341         1         0     10345         1         0     10347         1         0
     10349         1         0     10352         1         0     10355         1         0
     10358         1         0     10361         1         0     10364         1         0
     10367         1         0     10370         1         0     10373         1         0
     10376         1         0     10379         1         0     10382         1         0
     10385         1         0     10389         1         0     10394         1         0
     10397         1         0     10400         1         0     10403         1         0
     10406         1         0     10409         1         0     10412         1         0
     10415         1         0     10418         1         0     10421         1         0
     10424         1         0     10427         1         0     10430         1         0
     10433         1         0     10436         1         0     10439         1         0
     10442         1         0     10445         1         0     10448         1         0
     10451         1         0     10454         1         0     10458         2         0
     10474         2         0     10485         1         0     10493         1         0
     10502         1         0     10505         1         0     10508         1         0
     10511         1         0     10514         1         0     10517         1         0
     10520         1         0     10522         1         0     10524         1         0
     10527         1         0     10530         1         0     10533         1         0
     10536         1         0     10539         1         0     10542         1         0
     10545         1         0     10549         1         0     10552         1         0
     10555         1         0     10558         1         0     10561         1         0
     10564         1         0     10567         1         0     10569         1         0
     10571         1         0     10574         1         0     10577         1         0
     10580         1         0     10583         1         0     10586         1         0
     10589         1         0     10592         1         0     10596         2         0
     10612         2         0     10623         1         0     10631         1         0
     10640         1         0     10643         1         0     10646         1         0
     10649         1         0     10652         1         0     10655         1         0
     10658         1         0     10660         1         0     10662         1         0
     10665         1         0     10668         1         0     10671         1         0
     10674         1         0     10677         1         0     10680         1         0
     10683         1         0     10687         1         0     10690         1         0
     10693         1         0     10696         1         0     10699         1         0
     10702         1         0     10705         1         0     10707         1         0
     10709         1         0     10712         1         0     10715         1         0
     10718         1         0     10721         1         0     10724         1         0
     10727         1         0     10730         1         0     10734         2         0
     10741         2         0     10752         1         0     10760         1         0
     10769         1         0     10772         1         0     10775         1         0
     10778         1         0     10781         1         0     10784         1         0
     10787         1         0     10789         1         0     10791         1         0
     10794         1         0     10797         1         0     10800         1         0
     10803         1         0     10806         1         0     10809         1         0
     10812         1         0     10816         1         0     10819         1         0
     10822         1         0     10825         1         0     10828         1         0
     10831         1         0     10834         1         0     10836         1         0
     10838         1         0     10841         1         0     10844         1         0
     10847         1         0     10850         1         0     10853         1         0
     10856         1         0     10859         1         0     10863         2         0
     10879         2         0     10890         1         0     10894         1         0
     10898         1         0     10900         1         0     10902         1         0
     10905         1         0     10908         1         0     10911         1         0
     10914         1         0     10917         1         0     10920         1         0
     10923         1         0     10926         1         0     10929         1         0
     10932         1         0     10935         1         0     10938         1         0
     10942         1         0     10947         1         0     10950         1         0
     10953         1         0     10956         1         0     10959         1         0
     10962         1         0     10965         1         0     10968         1         0
     10971         1         0     10974         1         0     10977         1         0
     10980         1         0     10983         1         0     10986         1         0
     10989         1         0     10992         1         0     10995         1         0
     10998         1         0     11001         1         0     11004         1         0
     11007         1         0     11011         1         0     11015         1         0
     11018         1         0     11021         1         0     11024         1         0
     11026         1         0     11028         1         0     11031         1         0
     11034         1         0     11036         0         0     11037         1         0
     11041         1         0     11044         1         0     11047         1         0
     11049         0         0     11050         1         0     11054         1         0
     11057         1         0     11060         1         0     11062         1         0
     11066         1         0     11069         1         0     11072         1         0
     11075         1         0     11077         1         0     11081         1         0
     11085         2         0     11101         2         0     11112         1         0
     11120         1         0     11129         1         0     11132         1         0
     11135         1         0     11138         1         0     11141         1         0
     11144         1         0     11147         1         0     11149         1         0
     11151         1         0     11154         1         0     11157         1         0
     11160         1         0     11163         1         0     11166         1         0
     11169         1         0     11172         1         0     11176         1         0
     11179         1         0     11182         1         0     11185         1         0
     11188         1         0     11191         1         0     11194         1         0
     11196         1         0     11198         1         0     11201         1         0
     11204         1         0     11207         1         0     11210         1         0
     11213         1         0     11216         1         0     11219         1         0
     11223         2         0     11230         2         0     11241         1         0
     11249         1         0     11258         1         0     11261         1         0
     11264         1         0     11267         1         0     11270         1         0
     11273         1         0     11276         1         0     11278         1         0
     11280         1         0     11283         1         0     11286         1         0
     11289         1         0     11292         1         0     11295         1         0
     11298         1         0     11301         1         0     11305         1         0
     11308         1         0     11311         1         0     11314         1         0
     11317         1         0     11320         1         0     11323         1         0
     11325         1         0     11327         1         0     11330         1         0
     11333         1         0     11336         1         0     11339         1         0
     11342         1         0     11345         1         0     11348         1         0
     11352         2         0     11359         2         0     11370         1         0
     11378         1         0     11387         1         0     11390         1         0
     11393         1         0     11396         1         0     11399         1         0
     11402         1         0     11405         1         0     11407         1         0
     11409         1         0     11412         1         0     11415         1         0
     11418         1         0     11421         1         0     11424         1         0
     11427         1         0     11430         1         0     11434         1         0
     11437         1         0     11440         1         0     11443         1         0
     11446         1         0     11449         1         0     11452         1         0
     11454         1         0     11456         1         0     11459         1         0
     11462         1         0     11465         1         0     11468         1         0
     11471         1         0     11474         1         0     11477         1         0
     11481         2         0     11497         2         0     11508         1         0
     11516         1         0     11525         1         0     11528         1         0
     11531         1         0     11534         1         0     11537         1         0
     11540         1         0     11543         1         0     11545         1         0
     11547         1         0     11550         1         0     11553         1         0
     11556         1         0     11559         1         0     11562         1         0
     11565         1         0     11568         1         0     11572         1         0
     11575         1         0     11578         1         0     11581         1         0
     11584         1         0     11587         1         0     11590         1         0
     11592         1         0     11594         1         0     11597         1         0
     11600         1         0     11603         1         0     11606         1         0
     11609         1         0     11612         1         0     11615         1         0
     11619         1         0     11623         1         0     11626         1         0
     11629         1         0     11632         1         0     11634         1         0
     11636         1         0     11639         1         0     11642         1         0
     11644         0         0     11645         1         0     11649         1         0
     11652         1         0     11655         1         0     11657         0         0
     11658         1         0     11662         1         0     11665         1         0
     11668         1         0     11670         1         0     11674         1         0
     11677         1         0     11680         1         0     11683         1         0
     11685         1         0     11689         1         0     11693         2         0
     11709         2         0     11720         1         0     11724         1         0
     11728         1         0     11730         1         0     11732         1         0
     11735         1         0     11738         1         0     11741         1         0
     11744         1         0     11747         1         0     11750         1         0
     11753         1         0     11756         1         0     11759         1         0
     11762         1         0     11765         1         0     11768         1         0
     11772         1         0     11777         1         0     11780         1         0
     11783         1         0     11786         1         0     11789         1         0
     11792         1         0     11795         1         0     11798         1         0
     11801         1         0     11804         1         0     11807         1         0
     11810         1         0     11813         1         0     11816         1         0
     11819         1         0     11822         1         0     11825         1         0
     11828         1         0     11831         1         0     11834         1         0
     11837         1         0     11841         2         0     11848         2         0
     11859         1         0     11867         1         0     11876         1         0
     11879         1         0     11882         1         0     11885         1         0
     11888         1         0     11891         1         0     11894         1         0
     11896         1         0     11898         1         0     11901         1         0
     11904         1         0     11907         1         0     11910         1         0
     11913         1         0     11916         1         0     11919         1         0
     11923         1         0     11926         1         0     11929         1         0
     11932         1         0     11935         1         0     11938         1         0
     11941         1         0     11943         1         0     11945         1         0
     11948         1         0     11951         1         0     11954         1         0
     11957         1         0     11960         1         0     11963         1         0
     11966         1         0     11970         2         0     11977         2         0
     11988         1         0     11996         1         0     12005         1         0
     12008         1         0     12011         1         0     12014         1         0
     12017         1         0     12020         1         0     12023         1         0
     12025         1         0     12027         1         0     12030         1         0
     12033         1         0     12036         1         0     12039         1         0
     12042         1         0     12045         1         0     12048         1         0
     12052         1         0     12055         1         0     12058         1         0
     12061         1         0     12064         1         0     12067         1         0
     12070         1         0     12072         1         0     12074         1         0
     12077         1         0     12080         1         0     12083         1         0
     12086         1         0     12089         1         0     12092         1         0
     12095         1         0     12099         2         0     12115         2         0
     12126         1         0     12130         1         0     12134         1         0
     12136         1         0     12138         1         0     12141         1         0
     12144         1         0     12147         1         0     12150         1         0
     12153         1         0     12156         1         0     12159         1         0
     12162         1         0     12165         1         0     12168         1         0
     12171         1         0     12174         1         0     12178         1         0
     12183         1         0     12186         1         0     12189         1         0
     12192         1         0     12195         1         0     12198         1         0
     12201         1         0     12204         1         0     12207         1         0
     12210         1         0     12213         1         0     12216         1         0
     12219         1         0     12222         1         0     12225         1         0
     12228         1         0     12231         1         0     12234         1         0
     12237         1         0     12240         1         0     12243         1         0
     12247         2         0     12254         2         0     12265         1         0
     12273         1         0     12282         1         0     12285         1         0
     12288         1         0     12291         1         0     12294         1         0
     12297         1         0     12300         1         0     12302         1         0
     12304         1         0     12307         1         0     12310         1         0
     12313         1         0     12316         1         0     12319         1         0
     12322         1         0     12325         1         0     12329         1         0
     12332         1         0     12335         1         0     12338         1         0
     12341         1         0     12344         1         0     12347         1         0
     12349         1         0     12351         1         0     12354         1         0
     12357         1         0     12360         1         0     12363         1         0
     12366         1         0     12369         1         0     12372         1         0
     12376         1         0     12380         1         0     12383         1         0
     12386         1         0     12389         1         0     12391         1         0
     12393         1         0     12396         1         0     12399         1         0
     12401         0         0     12402         1         0     12406         1         0
     12409         1         0     12412         1         0     12414         0         0
     12415         1         0     12419         1         0     12422         1         0
     12425         1         0     12427         1         0     12431         1         0
     12434         1         0     12437         1         0     12440         1         0
     12442         1         0     12446         1         0     12450         2         0
     12466         2         0     12477         1         0     12481         1         0
     12485         1         0     12487         1         0     12489         1         0
     12492         1         0     12495         1         0     12498         1         0
     12501         1         0     12504         1         0     12507         1         0
     12510         1         0     12513         1         0     12516         1         0
     12519         1         0     12522         1         0     12525         1         0
     12529         1         0     12534         1         0     12537         1         0
     12540         1         0     12543         1         0     12546         1         0
     12549         1         0     12552         1         0     12555         1         0
     12558         1         0     12561         1         0     12564         1         0
     12567         1         0     12570         1         0     12573         1         0
     12576         1         0     12579         1         0     12582         1         0
     12585         1         0     12588         1         0     12591         1         0
     12594         1         0     12598         1         0     12602         1         0
     12605         1         0     12608         1         0     12611         1         0
     12613         1         0     12615         1         0     12618         1         0
     12621         1         0     12623         0         0     12624         1         0
     12628         1         0     12631         1         0     12634         1         0
     12636         0         0     12637         1         0     12641         1         0
     12644         1         0     12647         1         0     12649         1         0
     12653         1         0     12656         1         0     12659         1         0
     12662         1         0     12664         1         0     12668         1         0
     12672         2         0     12688         2         0     12699         1         0
     12703         1         0     12707         1         0     12709         1         0
     12711         1         0     12714         1         0     12717         1         0
     12720         1         0     12723         1         0     12726         1         0
     12729         1         0     12732         1         0     12735         1         0
     12738         1         0     12741         1         0     12744         1         0
     12747         1         0     12751         1         0     12756         1         0
     12759         1         0     12762         1         0     12765         1         0
     12768         1         0     12771         1         0     12774         1         0
     12777         1         0     12780         1         0     12783         1         0
     12786         1         0     12789         1         0     12792         1         0
     12795         1         0     12798         1         0     12801         1         0
     12804         1         0     12807         1         0     12810         1         0
     12813         1         0     12816         1         0     12820         2         0
     12836         2         0     12847         1         0     12855         1         0
     12864         1         0     12867         1         0     12870         1         0
     12873         1         0     12876         1         0     12879         1         0
     12882         1         0     12884         1         0     12886         1         0
     12889         1         0     12892         1         0     12895         1         0
     12898         1         0     12901         1         0     12904         1         0
     12907         1         0     12911         1         0     12914         1         0
     12917         1         0     12920         1         0     12923         1         0
     12926         1         0     12929         1         0     12931         1         0
     12933         1         0     12936         1         0     12939         1         0
     12942         1         0     12945         1         0     12948         1         0
     12951         1         0     12954         1         0     12958         2         0
     12974         2         0     12985         1         0     12993         1         0
     13002         1         0     13005         1         0     13008         1         0
     13011         1         0     13014         1         0     13017         1         0
     13020         1         0     13022         1         0     13024         1         0
     13027         1         0     13030         1         0     13033         1         0
     13036         1         0     13039         1         0     13042         1         0
     13045         1         0     13049         1         0     13052         1         0
     13055         1         0     13058         1         0     13061         1         0
     13064         1         0     13067         1         0     13069         1         0
     13071         1         0     13074         1         0     13077         1         0
     13080         1         0     13083         1         0     13086         1         0
     13089         1         0     13092         1         0     13096         2         0
     13103         2         0     13114         1         0     13122         1         0
     13131         1         0     13134         1         0     13137         1         0
     13140         1         0     13143         1         0     13146         1         0
     13149         1         0     13151         1         0     13153         1         0
     13156         1         0     13159         1         0     13162         1         0
     13165         1         0     13168         1         0     13171         1         0
     13174         1         0     13178         1         0     13181         1         0
     13184         1         0     13187         1         0     13190         1         0
     13193         1         0     13196         1         0     13198         1         0
     13200         1         0     13203         1         0     13206         1         0
     13209         1         0     13212         1         0     13215         1         0
     13218         1         0     13221         1         0     13225         2         0
     13232         2         0     13243         1         0     13251         1         0
     13260         1         0     13263         1         0     13266         1         0
     13269         1         0     13272         1         0     13275         1         0
     13278         1         0     13280         1         0     13282         1         0
     13285         1         0     13288         1         0     13291         1         0
     13294         1         0     13297         1         0     13300         1         0
     13303         1         0     13307         1         0     13310         1         0
     13313         1         0     13316         1         0     13319         1         0
     13322         1         0     13325         1         0     13327         1         0
     13329         1         0     13332         1         0     13335         1         0
     13338         1         0     13341         1         0     13344         1         0
     13347         1         0     13350         1         0     13354         2         0
     13370         2         0     13381         1         0     13385         1         0
     13389         1         0     13391         1         0     13393         1         0
     13396         1         0     13399         1         0     13402         1         0
     13405         1         0     13408         1         0     13411         1         0
     13414         1         0     13417         1         0     13420         1         0
     13423         1         0     13426         1         0     13429         1         0
     13433         1         0     13438         1         0     13441         1         0
     13444         1         0     13447         1         0     13450         1         0
     13453         1         0     13456         1         0     13459         1         0
     13462         1         0     13465         1         0     13468         1         0
     13471         1         0     13474         1         0     13477         1         0
     13480         1         0     13483         1         0     13486         1         0
     13489         1         0     13492         1         0     13495         1         0
     13498         1         0     13502         1         0     13506         1         0
     13509         1         0     13512         1         0     13515         1         0
     13517         1         0     13519         1         0     13522         1         0
     13525         1         0     13527         0         0     13528         1         0
     13532         1         0     13535         1         0     13538         1         0
     13540         0         0     13541         1         0     13545         1         0
     13548         1         0     13551         1         0     13553         1         0
     13557         1         0     13560         1         0     13563         1         0
     13566         1         0     13568         1         0     13572         1         0
     13576         1         0     13580         1         0     13583         1         0
     13586         1         0     13589         1         0     13591         1         0
     13593         1         0     13596         1         0     13599         1         0
     13601         0         0     13602         1         0     13606         1         0
     13609         1         0     13612         1         0     13614         0         0
     13615         1         0     13619         1         0     13622         1         0
     13625         1         0     13627         1         0     13631         1         0
     13634         1         0     13637         1         0     13640         1         0
     13642         1         0     13646         1         0     13650         1         0
     13654         1         0     13657         1         0     13660         1         0
     13663         1         0     13665         1         0     13667         1         0
     13670         1         0     13673         1         0     13675         0         0
     13676         1         0     13680         1         0     13683         1         0
     13686         1         0     13688         0         0     13689         1         0
     13693         1         0     13696         1         0     13699         1         0
     13701         1         0     13705         1         0     13708         1         0
     13711         1         0     13714         1         0     13716         1         0
     13720         1         0     13724         2         0     13740         2         0
     13751         1         0     13755         1         0     13759         1         0
     13761         1         0     13763         1         0     13766         1         0
     13769         1         0     13772         1         0     13775         1         0
     13778         1         0     13781         1         0     13784         1         0
     13787         1         0     13790         1         0     13793         1         0
     13796         1         0     13799         1         0     13803         1         0
     13808         1         0     13811         1         0     13814         1         0
     13817         1         0     13820         1         0     13823         1         0
     13826         1         0     13829         1         0     13832         1         0
     13835         1         0     13838         1         0     13841         1         0
     13844         1         0     13847         1         0     13850         1         0
     13853         1         0     13856         1         0     13859         1         0
     13862         1         0     13865         1         0     13868         1         0
     13872         2         0     13879         2         0     13890         1         0
     13898         1         0     13907         1         0     13910         1         0
     13913         1         0     13916         1         0     13919         1         0
     13922         1         0     13925         1         0     13927         1         0
     13929         1         0     13932         1         0     13935         1         0
     13938         1         0     13941         1         0     13944         1         0
     13947         1         0     13950         1         0     13954         1         0
     13957         1         0     13960         1         0     13963         1         0
     13966         1         0     13969         1         0     13972         1         0
     13974         1         0     13976         1         0     13979         1         0
     13982         1         0     13985         1         0     13988         1         0
     13991         1         0     13994         1         0     13997         1         0
     14001         1         0     14005         1         0     14008         1         0
     14011         1         0     14014         1         0     14016         1         0
     14018         1         0     14021         1         0     14024         1         0
     14026         0         0     14027         1         0     14031         1         0
     14034         1         0     14037         1         0     14039         0         0
     14040         1         0     14044         1         0     14047         1         0
     14050         1         0     14052         1         0     14056         1         0
     14059         1         0     14062         1         0     14065         1         0
     14067         1         0     14071         1         0     14075         2         0
     14082         2         0     14093         1         0     14101         1         0
     14110         1         0     14113         1         0     14116         1         0
     14119         1         0     14122         1         0     14125         1         0
     14128         1         0     14130         1         0     14132         1         0
     14135         1         0     14138         1         0     14141         1         0
     14144         1         0     14147         1         0     14150         1         0
     14153         1         0     14157         1         0     14160         1         0
     14163         1         0     14166         1         0     14169         1         0
     14172         1         0     14175         1         0     14177         1         0
     14179         1         0     14182         1         0     14185         1         0
     14188         1         0     14191         1         0     14194         1         0
     14197         1         0     14200         1         0     14204         1         0
     14208         1         0     14211         1         0     14214         1         0
     14217         1         0     14219         1         0     14221         1         0
     14224         1         0     14227         1         0     14229         0         0
     14230         1         0     14234         1         0     14237         1         0
     14240         1         0     14242         0         0     14243         1         0
     14247         1         0     14250         1         0     14253         1         0
     14255         1         0     14259         1         0     14262         1         0
     14265         1         0     14268         1         0     14270         1         0
     14274         1         0     14278         2         0     14285         2         0
     14296         1         0     14304         1         0     14313         1         0
     14316         1         0     14319         1         0     14322         1         0
     14325         1         0     14328         1         0     14331         1         0
     14333         1         0     14335         1         0     14338         1         0
     14341         1         0     14344         1         0     14347         1         0
     14350         1         0     14353         1         0     14356         1         0
     14360         1         0     14363         1         0     14366         1         0
     14369         1         0     14372         1         0     14375         1         0
     14378         1         0     14380         1         0     14382         1         0
     14385         1         0     14388         1         0     14391         1         0
     14394         1         0     14397         1         0     14400         1         0
     14403         1         0     14407         2         0     14423         2         0
     14434         1         0     14442         1         0     14451         1         0
     14454         1         0     14457         1         0     14460         1         0
     14463         1         0     14466         1         0     14469         1         0
     14471         1         0     14473         1         0     14476         1         0
     14479         1         0     14482         1         0     14485         1         0
     14488         1         0     14491         1         0     14494         1         0
     14498         1         0     14501         1         0     14504         1         0
     14507         1         0     14510         1         0     14513         1         0
     14516         1         0     14518         1         0     14520         1         0
     14523         1         0     14526         1         0     14529         1         0
     14532         1         0     14535         1         0     14538         1         0
     14541         1         0     14545         2         0     14552         2         0
     14563         1         0     14571         1         0     14580         1         0
     14583         1         0     14586         1         0     14589         1         0
     14592         1         0     14595         1         0     14598         1         0
     14600         1         0     14602         1         0     14605         1         0
     14608         1         0     14611         1         0     14614         1         0
     14617         1         0     14620         1         0     14623         1         0
     14627         1         0     14630         1         0     14633         1         0
     14636         1         0     14639         1         0     14642         1         0
     14645         1         0     14647         1         0     14649         1         0
     14652         1         0     14655         1         0     14658         1         0
     14661         1         0     14664         1         0     14667         1         0
     14670         1         0     14674         2         0     14690         2         0
     14701         1         0     14709         1         0     14718         1         0
     14721         1         0     14724         1         0     14727         1         0
     14730         1         0     14733         1         0     14736         1         0
     14738         1         0     14740         1         0     14743         1         0
     14746         1         0     14749         1         0     14752         1         0
     14755         1         0     14758         1         0     14761         1         0
     14765         1         0     14768         1         0     14771         1         0
     14774         1         0     14777         1         0     14780         1         0
     14783         1         0     14785         1         0     14787         1         0
     14790         1         0     14793         1         0     14796         1         0
     14799         1         0     14802         1         0     14805         1         0
     14808         1         0     14812         2         0     14819         2         0
     14830         1         0     14838         1         0     14847         1         0
     14850         1         0     14853         1         0     14856         1         0
     14859         1         0     14862         1         0     14865         1         0
     14867         1         0     14869         1         0     14872         1         0
     14875         1         0     14878         1         0     14881         1         0
     14884         1         0     14887         1         0     14890         1         0
     14894         1         0     14897         1         0     14900         1         0
     14903         1         0     14906         1         0     14909         1         0
     14912         1         0     14914         1         0     14916         1         0
     14919         1         0     14922         1         0     14925         1         0
     14928         1         0     14931         1         0     14934         1         0
     14937         1         0     14941         2         0     14948         2         0
     14959         1         0     14967         1         0     14976         1         0
     14979         1         0     14982         1         0     14985         1         0
     14988         1         0     14991         1         0     14994         1         0
     14996         1         0     14998         1         0     15001         1         0
     15004         1         0     15007         1         0     15010         1         0
     15013         1         0     15016         1         0     15019         1         0
     15023         1         0     15026         1         0     15029         1         0
     15032         1         0     15035         1         0     15038         1         0
     15041         1         0     15043         1         0     15045         1         0
     15048         1         0     15051         1         0     15054         1         0
     15057         1         0     15060         1         0     15063         1         0
     15066         1         0     15070         2         0     15077         2         0
     15088         1         0     15096         1         0     15105         1         0
     15108         1         0     15111         1         0     15114         1         0
     15117         1         0     15120         1         0     15123         1         0
     15125         1         0     15127         1         0     15130         1         0
     15133         1         0     15136         1         0     15139         1         0
     15142         1         0     15145         1         0     15148         1         0
     15152         1         0     15155         1         0     15158         1         0
     15161         1         0     15164         1         0     15167         1         0
     15170         1         0     15172         1         0     15174         1         0
     15177         1         0     15180         1         0     15183         1         0
     15186         1         0     15189         1         0     15192         1         0
     15195         1         0     15199         2         0     15215         2         0
     15226         1         0     15230         1         0     15234         1         0
     15236         1         0     15238         1         0     15241         1         0
     15244         1         0     15247         1         0     15250         1         0
     15253         1         0     15256         1         0     15259         1         0
     15262         1         0     15265         1         0     15268         1         0
     15271         1         0     15274         1         0     15278         1         0
     15283         1         0     15286         1         0     15289         1         0
     15292         1         0     15295         1         0     15298         1         0
     15301         1         0     15304         1         0     15307         1         0
     15310         1         0     15313         1         0     15316         1         0
     15319         1         0     15322         1         0     15325         1         0
     15328         1         0     15331         1         0     15334         1         0
     15337         1         0     15340         1         0     15343         1         0
     15347         2         0     15363         2         0     15374         1         0
     15382         1         0     15391         1         0     15394         1         0
     15397         1         0     15400         1         0     15403         1         0
     15406         1         0     15409         1         0     15411         1         0
     15413         1         0     15416         1         0     15419         1         0
     15422         1         0     15425         1         0     15428         1         0
     15431         1         0     15434         1         0     15438         1         0
     15441         1         0     15444         1         0     15447         1         0
     15450         1         0     15453         1         0     15456         1         0
     15458         1         0     15460         1         0     15463         1         0
     15466         1         0     15469         1         0     15472         1         0
     15475         1         0     15478         1         0     15481         1         0
     15485         2         0     15492         2         0     15503         1         0
     15511         1         0     15520         1         0     15523         1         0
     15526         1         0     15529         1         0     15532         1         0
     15535         1         0     15538         1         0     15540         1         0
     15542         1         0     15545         1         0     15548         1         0
     15551         1         0     15554         1         0     15557         1         0
     15560         1         0     15563         1         0     15567         1         0
     15570         1         0     15573         1         0     15576         1         0
     15579         1         0     15582         1         0     15585         1         0
     15587         1         0     15589         1         0     15592         1         0
     15595         1         0     15598         1         0     15601         1         0
     15604         1         0     15607         1         0     15610         1         0
     15614         2         0     15630         2         0     15641         1         0
     15645         1         0     15649         1         0     15651         1         0
     15653         1         0     15656         1         0     15659         1         0
     15662         1         0     15665         1         0     15668         1         0
     15671         1         0     15674         1         0     15677         1         0
     15680         1         0     15683         1         0     15686         1         0
     15689         1         0     15693         1         0     15698         1         0
     15701         1         0     15704         1         0     15707         1         0
     15710         1         0     15713         1         0     15716         1         0
     15719         1         0     15722         1         0     15725         1         0
     15728         1         0     15731         1         0     15734         1         0
     15737         1         0     15740         1         0     15743         1         0
     15746         1         0     15749         1         0     15752         1         0
     15755         1         0     15758         1         0     15762         2         0
     15778         2         0     15789         1         0     15793         1         0
     15797         1         0     15799         1         0     15801         1         0
     15804         1         0     15807         1         0     15810         1         0
     15813         1         0     15816         1         0     15819         1         0
     15822         1         0     15825         1         0     15828         1         0
     15831         1         0     15834         1         0     15837         1         0
     15841         1         0     15846         1         0     15849         1         0
     15852         1         0     15855         1         0     15858         1         0
     15861         1         0     15864         1         0     15867         1         0
     15870         1         0     15873         1         0     15876         1         0
     15879         1         0     15882         1         0     15885         1         0
     15888         1         0     15891         1         0     15894         1         0
     15897         1         0     15900         1         0     15903         1         0
     15906         1         0     15910         2         0     15926         2         0
     15937         1         0     15945         1         0     15954         1         0
     15957         1         0     15960         1         0     15963         1         0
     15966         1         0     15969         1         0     15972         1         0
     15974         1         0     15976         1         0     15979         1         0
     15982         1         0     15985         1         0     15988         1         0
     15991         1         0     15994         1         0     15997         1         0
     16001         1         0     16004         1         0     16007         1         0
     16010         1         0     16013         1         0     16016         1         0
     16019         1         0     16021         1         0     16023         1         0
     16026         1         0     16029         1         0     16032         1         0
     16035         1         0     16038         1         0     16041         1         0
     16044         1         0     16048         2         0     16064         2         0
     16075         1         0     16083         1         0     16092         1         0
     16095         1         0     16098         1         0     16101         1         0
     16104         1         0     16107         1         0     16110         1         0
     16112         1         0     16114         1         0     16117         1         0
     16120         1         0     16123         1         0     16126         1         0
     16129         1         0     16132         1         0     16135         1         0
     16139         1         0     16142         1         0     16145         1         0
     16148         1         0     16151         1         0     16154         1         0
     16157         1         0     16159         1         0     16161         1         0
     16164         1         0     16167         1         0     16170         1         0
     16173         1         0     16176         1         0     16179         1         0
     16182         1         0     16186         2         0     16193         2         0
     16204         1         0     16212         1         0     16221         1         0
     16224         1         0     16227         1         0     16230         1         0
     16233         1         0     16236         1         0     16239         1         0
     16241         1         0     16243         1         0     16246         1         0
     16249         1         0     16252         1         0     16255         1         0
     16258         1         0     16261         1         0     16264         1         0
     16268         1         0     16271         1         0     16274         1         0
     16277         1         0     16280         1         0     16283         1         0
     16286         1         0     16288         1         0     16290         1         0
     16293         1         0     16296         1         0     16299         1         0
     16302         1         0     16305         1         0     16308         1         0
     16311         1         0     16315         2         0     16331         2         0
     16342         1         0     16346         1         0     16350         1         0
     16352         1         0     16354         1         0     16357         1         0
     16360         1         0     16363         1         0     16366         1         0
     16369         1         0     16372         1         0     16375         1         0
     16378         1         0     16381         1         0     16384         1         0
     16387         1         0     16390         1         0     16394         1         0
     16399         1         0     16402         1         0     16405         1         0
     16408         1         0     16411         1         0     16414         1         0
     16417         1         0     16420         1         0     16423         1         0
     16426         1         0     16429         1         0     16432         1         0
     16435         1         0     16438         1         0     16441         1         0
     16444         1         0     16447         1         0     16450         1         0
     16453         1         0     16456         1         0     16459         1         0
     16463         2         0     16470         2         0     16481         1         0
     16489         1         0     16498         1         0     16501         1         0
     16504         1         0     16507         1         0     16510         1         0
     16513         1         0     16516         1         0     16518         1         0
     16520         1         0     16523         1         0     16526         1         0
     16529         1         0     16532         1         0     16535         1         0
     16538         1         0     16541         1         0     16545         1         0
     16548         1         0     16551         1         0     16554         1         0
     16557         1         0     16560         1         0     16563         1         0
     16565         1         0     16567         1         0     16570         1         0
     16573         1         0     16576         1         0     16579         1         0
     16582         1         0     16585         1         0     16588         1         0
     16592         2         0     16608         2         0     16619         1         0
     16623         1         0     16627         1         0     16629         1         0
     16631         1         0     16634         1         0     16637         1         0
     16640         1         0     16643         1         0     16646         1         0
     16649         1         0     16652         1         0     16655         1         0
     16658         1         0     16661         1         0     16664         1         0
     16667         1         0     16671         1         0     16676         1         0
     16679         1         0     16682         1         0     16685         1         0
     16688         1         0     16691         1         0     16694         1         0
     16697         1         0     16700         1         0     16703         1         0
     16706         1         0     16709         1         0     16712         1         0
     16715         1         0     16718         1         0     16721         1         0
     16724         1         0     16727         1         0     16730         1         0
     16733         1         0     16736         1         0     16740         2         0
     16756         2         0     16767         1         0     16775         1         0
     16784         1         0     16787         1         0     16790         1         0
     16793         1         0     16796         1         0     16799         1         0
     16802         1         0     16804         1         0     16806         1         0
     16809         1         0     16812         1         0     16815         1         0
     16818         1         0     16821         1         0     16824         1         0
     16827         1         0     16831         1         0     16834         1         0
     16837         1         0     16840         1         0     16843         1         0
     16846         1         0     16849         1         0     16851         1         0
     16853         1         0     16856         1         0     16859         1         0
     16862         1         0     16865         1         0     16868         1         0
     16871         1         0     16874         1         0     16878         2         0
     16894         2         0     16905         1         0     16913         1         0
     16922         1         0     16925         1         0     16928         1         0
     16931         1         0     16934         1         0     16937         1         0
     16940         1         0     16942         1         0     16944         1         0
     16947         1         0     16950         1         0     16953         1         0
     16956         1         0     16959         1         0     16962         1         0
     16965         1         0     16969         1         0     16972         1         0
     16975         1         0     16978         1         0     16981         1         0
     16984         1         0     16987         1         0     16989         1         0
     16991         1         0     16994         1         0     16997         1         0
     17000         1         0     17003         1         0     17006         1         0
     17009         1         0     17012         1         0     17016         2         0
     17023         2         0     17034         1         0     17042         1         0
     17051         1         0     17054         1         0     17057         1         0
     17060         1         0     17063         1         0     17066         1         0
     17069         1         0     17071         1         0     17073         1         0
     17076         1         0     17079         1         0     17082         1         0
     17085         1         0     17088         1         0     17091         1         0
     17094         1         0     17098         1         0     17101         1         0
     17104         1         0     17107         1         0     17110         1         0
     17113         1         0     17116         1         0     17118         1         0
     17120         1         0     17123         1         0     17126         1         0
     17129         1         0     17132         1         0     17135         1         0
     17138         1         0     17141         1         0     17145         1         0
     17149         1         0     17152         1         0     17155         1         0
     17158         1         0     17160         1         0     17162         1         0
     17165         1         0     17168         1         0     17170         0         0
     17171         1         0     17175         1         0     17178         1         0
     17181         1         0     17183         0         0     17184         1         0
     17188         1         0     17191         1         0     17194         1         0
     17196         1         0     17200         1         0     17203         1         0
     17206         1         0     17209         1         0     17211         1         0
     17215         1         0     17219         2         0     17235         2         0
     17246         1         0     17250         1         0     17254         1         0
     17256         1         0     17258         1         0     17261         1         0
     17264         1         0     17267         1         0     17270         1         0
     17273         1         0     17276         1         0     17279         1         0
     17282         1         0     17285         1         0     17288         1         0
     17291         1         0     17294         1         0     17298         1         0
     17303         1         0     17306         1         0     17309         1         0
     17312         1         0     17315         1         0     17318         1         0
     17321         1         0     17324         1         0     17327         1         0
     17330         1         0     17333         1         0     17336         1         0
     17339         1         0     17342         1         0     17345         1         0
     17348         1         0     17351         1         0     17354         1         0
     17357         1         0     17360         1         0     17363         1         0
     17367         2         0     17383         2         0     17394         1         0
     17402         1         0     17411         1         0     17414         1         0
     17417         1         0     17420         1         0     17423         1         0
     17426         1         0     17429         1         0     17431         1         0
     17433         1         0     17436         1         0     17439         1         0
     17442         1         0     17445         1         0     17448         1         0
     17451         1         0     17454         1         0     17458         1         0
     17461         1         0     17464         1         0     17467         1         0
     17470         1         0     17473         1         0     17476         1         0
     17478         1         0     17480         1         0     17483         1         0
     17486         1         0     17489         1         0     17492         1         0
     17495         1         0     17498         1         0     17501         1         0
     17505         2         0     17521         2         0     17532         1         0
     17536         1         0     17540         1         0     17542         1         0
     17544         1         0     17547         1         0     17550         1         0
     17553         1         0     17556         1         0     17559         1         0
     17562         1         0     17565         1         0     17568         1         0
     17571         1         0     17574         1         0     17577         1         0
     17580         1         0     17584         1         0     17589         1         0
     17592         1         0     17595         1         0     17598         1         0
     17601         1         0     17604         1         0     17607         1         0
     17610         1         0     17613         1         0     17616         1         0
     17619         1         0     17622         1         0     17625         1         0
     17628         1         0     17631         1         0     17634         1         0
     17637         1         0     17640         1         0     17643         1         0
     17646         1         0     17649         1         0     17653         1         0
     17657         1         0     17660         1         0     17663         1         0
     17666         1         0     17668         1         0     17670         1         0
     17673         1         0     17676         1         0     17678         0         0
     17679         1         0     17683         1         0     17686         1         0
     17689         1         0     17691         0         0     17692         1         0
     17696         1         0     17699         1         0     17702         1         0
     17704         1         0     17708         1         0     17711         1         0
     17714         1         0     17717         1         0     17719         1         0
     17723         1         0     17727         1         0     17731         1         0
     17734         1         0     17737         1         0     17740         1         0
     17742         1         0     17744         1         0     17747         1         0
     17750         1         0     17752         0         0     17753         1         0
     17757         1         0     17760         1         0     17763         1         0
     17765         0         0     17766         1         0     17770         1         0
     17773         1         0     17776         1         0     17778         1         0
     17782         1         0     17785         1         0     17788         1         0
     17791         1         0     17793         1         0     17797         1         0
     17801         2         0     17817         2         0     17828         1         0
     17836         1         0     17845         1         0     17848         1         0
     17851         1         0     17854         1         0     17857         1         0
     17860         1         0     17863         1         0     17865         1         0
     17867         1         0     17870         1         0     17873         1         0
     17876         1         0     17879         1         0     17882         1         0
     17885         1         0     17888         1         0     17892         1         0
     17895         1         0     17898         1         0     17901         1         0
     17904         1         0     17907         1         0     17910         1         0
     17912         1         0     17914         1         0     17917         1         0
     17920         1         0     17923         1         0     17926         1         0
     17929         1         0     17932         1         0     17935         1         0
     17939         2         0     17955         2         0     17966         1         0
     17970         1         0     17974         1         0     17976         1         0
     17978         1         0     17981         1         0     17984         1         0
     17987         1         0     17990         1         0     17993         1         0
     17996         1         0     17999         1         0     18002         1         0
     18005         1         0     18008         1         0     18011         1         0
     18014         1         0     18018         1         0     18023         1         0
     18026         1         0     18029         1         0     18032         1         0
     18035         1         0     18038         1         0     18041         1         0
     18044         1         0     18047         1         0     18050         1         0
     18053         1         0     18056         1         0     18059         1         0
     18062         1         0     18065         1         0     18068         1         0
     18071         1         0     18074         1         0     18077         1         0
     18080         1         0     18083         1         0     18087         2         0
     18094         2         0     18105         1         0     18113         1         0
     18122         1         0     18125         1         0     18128         1         0
     18131         1         0     18134         1         0     18137         1         0
     18140         1         0     18142         1         0     18144         1         0
     18147         1         0     18150         1         0     18153         1         0
     18156         1         0     18159         1         0     18162         1         0
     18165         1         0     18169         1         0     18172         1         0
     18175         1         0     18178         1         0     18181         1         0
     18184         1         0     18187         1         0     18189         1         0
     18191         1         0     18194         1         0     18197         1         0
     18200         1         0     18203         1         0     18206         1         0
     18209         1         0     18212         1         0     18216         2         0
     18223         2         0     18234         1         0     18242         1         0
     18251         1         0     18254         1         0     18257         1         0
     18260         1         0     18263         1         0     18266         1         0
     18269         1         0     18271         1         0     18273         1         0
     18276         1         0     18279         1         0     18282         1         0
     18285         1         0     18288         1         0     18291         1         0
     18294         1         0     18298         1         0     18301         1         0
     18304         1         0     18307         1         0     18310         1         0
     18313         1         0     18316         1         0     18318         1         0
     18320         1         0     18323         1         0     18326         1         0
     18329         1         0     18332         1         0     18335         1         0
     18338         1         0     18341         1         0     18345         1         0
     18349         1         0     18352         1         0     18355         1         0
     18358         1         0     18360         1         0     18362         1         0
     18365         1         0     18368         1         0     18370         0         0
     18371         1         0     18375         1         0     18378         1         0
     18381         1         0     18383         0         0     18384         1         0
     18388         1         0     18391         1         0     18394         1         0
     18396         1         0     18400         1         0     18403         1         0
     18406         1         0     18409         1         0     18411         1         0
     18415         1         0     18419         2         0     18426         2         0
     18437         1         0     18445         1         0     18454         1         0
     18457         1         0     18460         1         0     18463         1         0
     18466         1         0     18469         1         0     18472         1         0
     18474         1         0     18476         1         0     18479         1         0
     18482         1         0     18485         1         0     18488         1         0
     18491         1         0     18494         1         0     18497         1         0
     18501         1         0     18504         1         0     18507         1         0
     18510         1         0     18513         1         0     18516         1         0
     18519         1         0     18521         1         0     18523         1         0
     18526         1         0     18529         1         0     18532         1         0
     18535         1         0     18538         1         0     18541         1         0
     18544         1         0     18548         2         0     18564         2         0
     18575         1         0     18579         1         0     18583         1         0
     18585         1         0     18587         1         0     18590         1         0
     18593         1         0     18596         1         0     18599         1         0
     18602         1         0     18605         1         0     18608         1         0
     18611         1         0     18614         1         0     18617         1         0
     18620         1         0     18623         1         0     18627         1         0
     18632         1         0     18635         1         0     18638         1         0
     18641         1         0     18644         1         0     18647         1         0
     18650         1         0     18653         1         0     18656         1         0
     18659         1         0     18662         1         0     18665         1         0
     18668         1         0     18671         1         0     18674         1         0
     18677         1         0     18680         1         0     18683         1         0
     18686         1         0     18689         1         0     18692         1         0
     18696         2         0     18712         2         0     18723         1         0
     18731         1         0     18740         1         0     18743         1         0
     18746         1         0     18749         1         0     18752         1         0
     18755         1         0     18758         1         0     18760         1         0
     18762         1         0     18765         1         0     18768         1         0
     18771         1         0     18774         1         0     18777         1         0
     18780         1         0     18783         1         0     18787         1         0
     18790         1         0     18793         1         0     18796         1         0
     18799         1         0     18802         1         0     18805         1         0
     18807         1         0     18809         1         0     18812         1         0
     18815         1         0     18818         1         0     18821         1         0
     18824         1         0     18827         1         0     18830         1         0
     18834         2         0     18841         2         0     18852         1         0
     18860         1         0     18869         1         0     18872         1         0
     18875         1         0     18878         1         0     18881         1         0
     18884         1         0     18887         1         0     18889         1         0
     18891         1         0     18894         1         0     18897         1         0
     18900         1         0     18903         1         0     18906         1         0
     18909         1         0     18912         1         0     18916         1         0
     18919         1         0     18922         1         0     18925         1         0
     18928         1         0     18931         1         0     18934         1         0
     18936         1         0     18938         1         0     18941         1         0
     18944         1         0     18947         1         0     18950         1         0
     18953         1         0     18956         1         0     18959         1         0
     18963         1         0     18967         1         0     18970         1         0
     18973         1         0     18976         1         0     18978         1         0
     18980         1         0     18983         1         0     18986         1         0
     18988         0         0     18989         1         0     18993         1         0
     18996         1         0     18999         1         0     19001         0         0
     19002         1         0     19006         1         0     19009         1         0
     19012         1         0     19014         1         0     19018         1         0
     19021         1         0     19024         1         0     19027         1         0
     19029         1         0     19033         1         0     19037         2         0
     19053         2         0     19064         1         0     19068         1         0
     19072         1         0     19074         1         0     19076         1         0
     19079         1         0     19082         1         0     19085         1         0
     19088         1         0     19091         1         0     19094         1         0
     19097         1         0     19100         1         0     19103         1         0
     19106         1         0     19109         1         0     19112         1         0
     19116         1         0     19121         1         0     19124         1         0
     19127         1         0     19130         1         0     19133         1         0
     19136         1         0     19139         1         0     19142         1         0
     19145         1         0     19148         1         0     19151         1         0
     19154         1         0     19157         1         0     19160         1         0
     19163         1         0     19166         1         0     19169         1         0
     19172         1         0     19175         1         0     19178         1         0
     19181         1         0     19185         1         0     19189         1         0
     19192         1         0     19195         1         0     19198         1         0
     19200         1         0     19202         1         0     19205         1         0
     19208         1         0     19210         0         0     19211         1         0
     19215         1         0     19218         1         0     19221         1         0
     19223         0         0     19224         1         0     19228         1         0
     19231         1         0     19234         1         0     19236         1         0
     19240         1         0     19243         1         0     19246         1         0
     19249         1         0     19251         1         0     19255         1         0
     19259         1         0     19263         1         0     19266         1         0
     19269         1         0     19272         1         0     19274         1         0
     19276         1         0     19279         1         0     19282         1         0
     19284         0         0     19285         1         0     19289         1         0
     19292         1         0     19295         1         0     19297         0         0
     19298         1         0     19302         1         0     19305         1         0
     19308         1         0     19310         1         0     19314         1         0
     19317         1         0     19320         1         0     19323         1         0
     19325         1         0     19329         1         0     19333         2         0
     19340         2         0     19351         1         0     19359         1         0
     19368         1         0     19371         1         0     19374         1         0
     19377         1         0     19380         1         0     19383         1         0
     19386         1         0     19388         1         0     19390         1         0
     19393         1         0     19396         1         0     19399         1         0
     19402         1         0     19405         1         0     19408         1         0
     19411         1         0     19415         1         0     19418         1         0
     19421         1         0     19424         1         0     19427         1         0
     19430         1         0     19433         1         0     19435         1         0
     19437         1         0     19440         1         0     19443         1         0
     19446         1         0     19449         1         0     19452         1         0
     19455         1         0     19458         1         0     19462         1         0
     19466         1         0     19469         1         0     19472         1         0
     19475         1         0     19477         1         0     19479         1         0
     19482         1         0     19485         1         0     19487         0         0
     19488         1         0     19492         1         0     19495         1         0
     19498         1         0     19500         0         0     19501         1         0
     19505         1         0     19508         1         0     19511         1         0
     19513         1         0     19517         1         0     19520         1         0
     19523         1         0     19526         1         0     19528         1         0
     19532         1         0     19536         2         0     19552         2         0
     19563         1         0     19567         1         0     19571         1         0
     19573         1         0     19575         1         0     19578         1         0
     19581         1         0     19584         1         0     19587         1         0
     19590         1         0     19593         1         0     19596         1         0
     19599         1         0     19602         1         0     19605         1         0
     19608         1         0     19611         1         0     19615         1         0
     19620         1         0     19623         1         0     19626         1         0
     19629         1         0     19632         1         0     19635         1         0
     19638         1         0     19641         1         0     19644         1         0
     19647         1         0     19650         1         0     19653         1         0
     19656         1         0     19659         1         0     19662         1         0
     19665         1         0     19668         1         0     19671         1         0
     19674         1         0     19677         1         0     19680         1         0
     19684         2         0     19700         2         0     19711         1         0
     19719         1         0     19728         1         0     19731         1         0
     19734         1         0     19737         1         0     19740         1         0
     19743         1         0     19746         1         0     19748         1         0
     19750         1         0     19753         1         0     19756         1         0
     19759         1         0     19762         1         0     19765         1         0
     19768         1         0     19771         1         0     19775         1         0
     19778         1         0     19781         1         0     19784         1         0
     19787         1         0     19790         1         0     19793         1         0
     19795         1         0     19797         1         0     19800         1         0
     19803         1         0     19806         1         0     19809         1         0
     19812         1         0     19815         1         0     19818         1         0
     19822         2         0     19838         2         0     19849         1         0
     19857         1         0     19866         1         0     19869         1         0
     19872         1         0     19875         1         0     19878         1         0
     19881         1         0     19884         1         0     19886         1         0
     19888         1         0     19891         1         0     19894         1         0
     19897         1         0     19900         1         0     19903         1         0
     19906         1         0     19909         1         0     19913         1         0
     19916         1         0     19919         1         0     19922         1         0
     19925         1         0     19928         1         0     19931         1         0
     19933         1         0     19935         1         0     19938         1         0
     19941         1         0     19944         1         0     19947         1         0
     19950         1         0     19953         1         0     19956         1         0
     19960         2         0     19976         2         0     19987         1         0
     19995         1         0     20004         1         0     20007         1         0
     20010         1         0     20013         1         0     20016         1         0
     20019         1         0     20022         1         0     20024         1         0
     20026         1         0     20029         1         0     20032         1         0
     20035         1         0     20038         1         0     20041         1         0
     20044         1         0     20047         1         0     20051         1         0
     20054         1         0     20057         1         0     20060         1         0
     20063         1         0     20066         1         0     20069         1         0
     20071         1         0     20073         1         0     20076         1         0
     20079         1         0     20082         1         0     20085         1         0
     20088         1         0     20091         1         0     20094         1         0
     20098         2         0     20105         2         0     20116         1         0
     20124         1         0     20133         1         0     20136         1         0
     20139         1         0     20142         1         0     20145         1         0
     20148         1         0     20151         1         0     20153         1         0
     20155         1         0     20158         1         0     20161         1         0
     20164         1         0     20167         1         0     20170         1         0
     20173         1         0     20176         1         0     20180         1         0
     20183         1         0     20186         1         0     20189         1         0
     20192         1         0     20195         1         0     20198         1         0
     20200         1         0     20202         1         0     20205         1         0
     20208         1         0     20211         1         0     20214         1         0
     20217         1         0     20220         1         0     20223         1         0
     20227         2         0     20234         2         0     20245         1         0
     20253         1         0     20262         1         0     20265         1         0
     20268         1         0     20271         1         0     20274         1         0
     20277         1         0     20280         1         0     20282         1         0
     20284         1         0     20287         1         0     20290         1         0
     20293         1         0     20296         1         0     20299         1         0
     20302         1         0     20305         1         0     20309         1         0
     20312         1         0     20315         1         0     20318         1         0
     20321         1         0     20324         1         0     20327         1         0
     20329         1         0     20331         1         0     20334         1         0
     20337         1         0     20340         1         0     20343         1         0
     20346         1         0     20349         1         0     20352         1         0
     20356         2         0     20372         2         0     20383         1         0
     20391         1         0     20400         1         0     20403         1         0
     20406         1         0     20409         1         0     20412         1         0
     20415         1         0     20418         1         0     20420         1         0
     20422         1         0     20425         1         0     20428         1         0
     20431         1         0     20434         1         0     20437         1         0
     20440         1         0     20443         1         0     20447         1         0
     20450         1         0     20453         1         0     20456         1         0
     20459         1         0     20462         1         0     20465         1         0
     20467         1         0     20469         1         0     20472         1         0
     20475         1         0     20478         1         0     20481         1         0
     20484         1         0     20487         1         0     20490         1         0
     20494         2         0     20510         2         0     20521         1         0
     20529         1         0     20538         1         0     20541         1         0
     20544         1         0     20547         1         0     20550         1         0
     20553         1         0     20556         1         0     20558         1         0
     20560         1         0     20563         1         0     20566         1         0
     20569         1         0     20572         1         0     20575         1         0
     20578         1         0     20581         1         0     20585         1         0
     20588         1         0     20591         1         0     20594         1         0
     20597         1         0     20600         1         0     20603         1         0
     20605         1         0     20607         1         0     20610         1         0
     20613         1         0     20616         1         0     20619         1         0
     20622         1         0     20625         1         0     20628         1         0
     20632         2         0     20639         2         0     20650         1         0
     20658         1         0     20667         1         0     20670         1         0
     20673         1         0     20676         1         0     20679         1         0
     20682         1         0     20685         1         0     20687         1         0
     20689         1         0     20692         1         0     20695         1         0
     20698         1         0     20701         1         0     20704         1         0
     20707         1         0     20710         1         0     20714         1         0
     20717         1         0     20720         1         0     20723         1         0
     20726         1         0     20729         1         0     20732         1         0
     20734         1         0     20736         1         0     20739         1         0
     20742         1         0     20745         1         0     20748         1         0
     20751         1         0     20754         1         0     20757         1         0
     20761         1         0     20765         1         0     20768         1         0
     20771         1         0     20774         1         0     20776         1         0
     20778         1         0     20781         1         0     20784         1         0
     20786         0         0     20787         1         0     20791         1         0
     20794         1         0     20797         1         0     20799         0         0
     20800         1         0     20804         1         0     20807         1         0
     20810         1         0     20812         1         0     20816         1         0
     20819         1         0     20822         1         0     20825         1         0
     20827         1         0     20831         1         0     20835         2         0
     20842         2         0     20853         1         0     20861         1         0
     20870         1         0     20873         1         0     20876         1         0
     20879         1         0     20882         1         0     20885         1         0
     20888         1         0     20890         1         0     20892         1         0
     20895         1         0     20898         1         0     20901         1         0
     20904         1         0     20907         1         0     20910         1         0
     20913         1         0     20917         1         0     20920         1         0
     20923         1         0     20926         1         0     20929         1         0
     20932         1         0     20935         1         0     20937         1         0
     20939         1         0     20942         1         0     20945         1         0
     20948         1         0     20951         1         0     20954         1         0
     20957         1         0     20960         1         0     20964         2         0
     20980         2         0     20991         1         0     20999         1         0
     21008         1         0     21011         1         0     21014         1         0
     21017         1         0     21020         1         0     21023         1         0
     21026         1         0     21028         1         0     21030         1         0
     21033         1         0     21036         1         0     21039         1         0
     21042         1         0     21045         1         0     21048         1         0
     21051         1         0     21055         1         0     21058         1         0
     21061         1         0     21064         1         0     21067         1         0
     21070         1         0     21073         1         0     21075         1         0
     21077         1         0     21080         1         0     21083         1         0
     21086         1         0     21089         1         0     21092         1         0
     21095         1         0     21098         1         0     21102         2         0
     21118         2         0     21129         1         0     21137         1         0
     21146         1         0     21149         1         0     21152         1         0
     21155         1         0     21158         1         0     21161         1         0
     21164         1         0     21166         1         0     21168         1         0
     21171         1         0     21174         1         0     21177         1         0
     21180         1         0     21183         1         0     21186         1         0
     21189         1         0     21193         1         0     21196         1         0
     21199         1         0     21202         1         0     21205         1         0
     21208         1         0     21211         1         0     21213         1         0
     21215         1         0     21218         1         0     21221         1         0
     21224         1         0     21227         1         0     21230         1         0
     21233         1         0     21236         1         0     21240         2         0
     21247         2         0     21258         1         0     21266         1         0
     21275         1         0     21278         1         0     21281         1         0
     21284         1         0     21287         1         0     21290         1         0
     21293         1         0     21295         1         0     21297         1         0
     21300         1         0     21303         1         0     21306         1         0
     21309         1         0     21312         1         0     21315         1         0
     21318         1         0     21322         1         0     21325         1         0
     21328         1         0     21331         1         0     21334         1         0
     21337         1         0     21340         1         0     21342         1         0
     21344         1         0     21347         1         0     21350         1         0
     21353         1         0     21356         1         0     21359         1         0
     21362         1         0     21365         1         0     21369         2         0
     21385         2         0     21396         1         0     21400         1         0
     21404         1         0     21406         1         0     21408         1         0
     21411         1         0     21414         1         0     21417         1         0
     21420         1         0     21423         1         0     21426         1         0
     21429         1         0     21432         1         0     21435         1         0
     21438         1         0     21441         1         0     21444         1         0
     21448         1         0     21453         1         0     21456         1         0
     21459         1         0     21462         1         0     21465         1         0
     21468         1         0     21471         1         0     21474         1         0
     21477         1         0     21480         1         0     21483         1         0
     21486         1         0     21489         1         0     21492         1         0
     21495         1         0     21498         1         0     21501         1         0
     21504         1         0     21507         1         0     21510         1         0
     21513         1         0     21517         1         0     21521         1         0
     21524         1         0     21527         1         0     21530         1         0
     21532         1         0     21534         1         0     21537         1         0
     21540         1         0     21542         0         0     21543         1         0
     21547         1         0     21550         1         0     21553         1         0
     21555         0         0     21556         1         0     21560         1         0
     21563         1         0     21566         1         0     21568         1         0
     21572         1         0     21575         1         0     21578         1         0
     21581         1         0     21583         1         0     21587         1         0
     21591         2         0     21607         2         0     21618         1         0
     21626         1         0     21635         1         0     21638         1         0
     21641         1         0     21644         1         0     21647         1         0
     21650         1         0     21653         1         0     21655         1         0
     21657         1         0     21660         1         0     21663         1         0
     21666         1         0     21669         1         0     21672         1         0
     21675         1         0     21678         1         0     21682         1         0
     21685         1         0     21688         1         0     21691         1         0
     21694         1         0     21697         1         0     21700         1         0
     21702         1         0     21704         1         0     21707         1         0
     21710         1         0     21713         1         0     21716         1         0
     21719         1         0     21722         1         0     21725         1         0
     21729         2         0     21736         2         0     21747         1         0
     21755         1         0     21764         1         0     21767         1         0
     21770         1         0     21773         1         0     21776         1         0
     21779         1         0     21782         1         0     21784         1         0
     21786         1         0     21789         1         0     21792         1         0
     21795         1         0     21798         1         0     21801         1         0
     21804         1         0     21807         1         0     21811         1         0
     21814         1         0     21817         1         0     21820         1         0
     21823         1         0     21826         1         0     21829         1         0
     21831         1         0     21833         1         0     21836         1         0
     21839         1         0     21842         1         0     21845         1         0
     21848         1         0     21851         1         0     21854         1         0
     21858         2         0     21874         2         0     21885         1         0
     21893         1         0     21902         1         0     21905         1         0
     21908         1         0     21911         1         0     21914         1         0
     21917         1         0     21920         1         0     21922         1         0
     21924         1         0     21927         1         0     21930         1         0
     21933         1         0     21936         1         0     21939         1         0
     21942         1         0     21945         1         0     21949         1         0
     21952         1         0     21955         1         0     21958         1         0
     21961         1         0     21964         1         0     21967         1         0
     21969         1         0     21971         1         0     21974         1         0
     21977         1         0     21980         1         0     21983         1         0
     21986         1         0     21989         1         0     21992         1         0
     21996         2         0     22012         2         0     22023         1         0
     22027         1         0     22031         1         0     22033         1         0
     22035         1         0     22038         1         0     22041         1         0
     22044         1         0     22047         1         0     22050         1         0
     22053         1         0     22056         1         0     22059         1         0
     22062         1         0     22065         1         0     22068         1         0
     22071         1         0     22075         1         0     22080         1         0
     22083         1         0     22086         1         0     22089         1         0
     22092         1         0     22095         1         0     22098         1         0
     22101         1         0     22104         1         0     22107         1         0
     22110         1         0     22113         1         0     22116         1         0
     22119         1         0     22122         1         0     22125         1         0
     22128         1         0     22131         1         0     22134         1         0
     22137         1         0     22140         1         0     22144         2         0
     22151         2         0     22162         1         0     22170         1         0
     22179         1         0     22182         1         0     22185         1         0
     22188         1         0     22191         1         0     22194         1         0
     22197         1         0     22199         1         0     22201         1         0
     22204         1         0     22207         1         0     22210         1         0
     22213         1         0     22216         1         0     22219         1         0
     22222         1         0     22226         1         0     22229         1         0
     22232         1         0     22235         1         0     22238         1         0
     22241         1         0     22244         1         0     22246         1         0
     22248         1         0     22251         1         0     22254         1         0
     22257         1         0     22260         1         0     22263         1         0
     22266         1         0     22269         1         0     22273         2         0
     22280         2         0     22291         1         0     22299         1         0
     22308         1         0     22311         1         0     22314         1         0
     22317         1         0     22320         1         0     22323         1         0
     22326         1         0     22328         1         0     22330         1         0
     22333         1         0     22336         1         0     22339         1         0
     22342         1         0     22345         1         0     22348         1         0
     22351         1         0     22355         1         0     22358         1         0
     22361         1         0     22364         1         0     22367         1         0
     22370         1         0     22373         1         0     22375         1         0
     22377         1         0     22380         1         0     22383         1         0
     22386         1         0     22389         1         0     22392         1         0
     22395         1         0     22398         1         0     22402         2         0
     22418         2         0     22429         1         0     22437         1         0
     22446         1         0     22449         1         0     22452         1         0
     22455         1         0     22458         1         0     22461         1         0
     22464         1         0     22466         1         0     22468         1         0
     22471         1         0     22474         1         0     22477         1         0
     22480         1         0     22483         1         0     22486         1         0
     22489         1         0     22493         1         0     22496         1         0
     22499         1         0     22502         1         0     22505         1         0
     22508         1         0     22511         1         0     22513         1         0
     22515         1         0     22518         1         0     22521         1         0
     22524         1         0     22527         1         0     22530         1         0
     22533         1         0     22536         1         0     22540         2         0
     22556         2         0     22567         1         0     22575         1         0
     22584         1         0     22587         1         0     22590         1         0
     22593         1         0     22596         1         0     22599         1         0
     22602         1         0     22604         1         0     22606         1         0
     22609         1         0     22612         1         0     22615         1         0
     22618         1         0     22621         1         0     22624         1         0
     22627         1         0     22631         1         0     22634         1         0
     22637         1         0     22640         1         0     22643         1         0
     22646         1         0     22649         1         0     22651         1         0
     22653         1         0     22656         1         0     22659         1         0
     22662         1         0     22665         1         0     22668         1         0
     22671         1         0     22674         1         0     22678         1         0
     22682         1         0     22685         1         0     22688         1         0
     22691         1         0     22693         1         0     22695         1         0
     22698         1         0     22701         1         0     22703         0         0
     22704         1         0     22708         1         0     22711         1         0
     22714         1         0     22716         0         0     22717         1         0
     22721         1         0     22724         1         0     22727         1         0
     22729         1         0     22733         1         0     22736         1         0
     22739         1         0     22742         1         0     22744         1         0
     22748         1         0     22752         2         0     22768         2         0
     22779         1         0     22787         1         0     22796         1         0
     22799         1         0     22802         1         0     22805         1         0
     22808         1         0     22811         1         0     22814         1         0
     22816         1         0     22818         1         0     22821         1         0
     22824         1         0     22827         1         0     22830         1         0
     22833         1         0     22836         1         0     22839         1         0
     22843         1         0     22846         1         0     22849         1         0
     22852         1         0     22855         1         0     22858         1         0
     22861         1         0     22863         1         0     22865         1         0
     22868         1         0     22871         1         0     22874         1         0
     22877         1         0     22880         1         0     22883         1         0
     22886         1         0     22890         1         0     22894         1         0
     22897         1         0     22900         1         0     22903         1         0
     22905         1         0     22907         1         0     22910         1         0
     22913         1         0     22915         0         0     22916         1         0
     22920         1         0     22923         1         0     22926         1         0
     22928         0         0     22929         1         0     22933         1         0
     22936         1         0     22939         1         0     22941         1         0
     22945         1         0     22948         1         0     22951         1         0
     22954         1         0     22956         1         0     22960         1         0
     22964         2         0     22971         2         0     22982         1         0
     22990         1         0     22999         1         0     23002         1         0
     23005         1         0     23008         1         0     23011         1         0
     23014         1         0     23017         1         0     23019         1         0
     23021         1         0     23024         1         0     23027         1         0
     23030         1         0     23033         1         0     23036         1         0
     23039         1         0     23042         1         0     23046         1         0
     23049         1         0     23052         1         0     23055         1         0
     23058         1         0     23061         1         0     23064         1         0
     23066         1         0     23068         1         0     23071         1         0
     23074         1         0     23077         1         0     23080         1         0
     23083         1         0     23086         1         0     23089         1         0
     23093         2         0     23109         2         0     23120         1         0
     23128         1         0     23137         1         0     23140         1         0
     23143         1         0     23146         1         0     23149         1         0
     23152         1         0     23155         1         0     23157         1         0
     23159         1         0     23162         1         0     23165         1         0
     23168         1         0     23171         1         0     23174         1         0
     23177         1         0     23180         1         0     23184         1         0
     23187         1         0     23190         1         0     23193         1         0
     23196         1         0     23199         1         0     23202         1         0
     23204         1         0     23206         1         0     23209         1         0
     23212         1         0     23215         1         0     23218         1         0
     23221         1         0     23224         1         0     23227         1         0
     23231         2         0     23238         2         0     23249         1         0
     23257         1         0     23266         1         0     23269         1         0
     23272         1         0     23275         1         0     23278         1         0
     23281         1         0     23284         1         0     23286         1         0
     23288         1         0     23291         1         0     23294         1         0
     23297         1         0     23300         1         0     23303         1         0
     23306         1         0     23309         1         0     23313         1         0
     23316         1         0     23319         1         0     23322         1         0
     23325         1         0     23328         1         0     23331         1         0
     23333         1         0     23335         1         0     23338         1         0
     23341         1         0     23344         1         0     23347         1         0
     23350         1         0     23353         1         0     23356         1         0
     23360         2         0     23376         2         0     23387         1         0
     23395         1         0     23404         1         0     23407         1         0
     23410         1         0     23413         1         0     23416         1         0
     23419         1         0     23422         1         0     23424         1         0
     23426         1         0     23429         1         0     23432         1         0
     23435         1         0     23438         1         0     23441         1         0
     23444         1         0     23447         1         0     23451         1         0
     23454         1         0     23457         1         0     23460         1         0
     23463         1         0     23466         1         0     23469         1         0
     23471         1         0     23473         1         0     23476         1         0
     23479         1         0     23482         1         0     23485         1         0
     23488         1         0     23491         1         0     23494         1         0
     23498         2         0     23514         2         0     23525         1         0
     23533         1         0     23542         1         0     23545         1         0
     23548         1         0     23551         1         0     23554         1         0
     23557         1         0     23560         1         0     23562         1         0
     23564         1         0     23567         1         0     23570         1         0
     23573         1         0     23576         1         0     23579         1         0
     23582         1         0     23585         1         0     23589         1         0
     23592         1         0     23595         1         0     23598         1         0
     23601         1         0     23604         1         0     23607         1         0
     23609         1         0     23611         1         0     23614         1         0
     23617         1         0     23620         1         0     23623         1         0
     23626         1         0     23629         1         0     23632         1         0
     23636         2         0     23652         2         0     23663         1         0
     23671         1         0     23680         1         0     23683         1         0
     23686         1         0     23689         1         0     23692         1         0
     23695         1         0     23698         1         0     23700         1         0
     23702         1         0     23705         1         0     23708         1         0
     23711         1         0     23714         1         0     23717         1         0
     23720         1         0     23723         1         0     23727         1         0
     23730         1         0     23733         1         0     23736         1         0
     23739         1         0     23742         1         0     23745         1         0
     23747         1         0     23749         1         0     23752         1         0
     23755         1         0     23758         1         0     23761         1         0
     23764         1         0     23767         1         0     23770         1         0
     23774         2         0     23790         2         0     23801         1         0
     23809         1         0     23818         1         0     23821         1         0
     23824         1         0     23827         1         0     23830         1         0
     23833         1         0     23836         1         0     23838         1         0
     23840         1         0     23843         1         0     23846         1         0
     23849         1         0     23852         1         0     23855         1         0
     23858         1         0     23861         1         0     23865         1         0
     23868         1         0     23871         1         0     23874         1         0
     23877         1         0     23880         1         0     23883         1         0
     23885         1         0     23887         1         0     23890         1         0
     23893         1         0     23896         1         0     23899         1         0
     23902         1         0     23905         1         0     23908         1         0
     23912         2         0     23928         2         0     23939         1         0
     23947         1         0     23956         1         0     23959         1         0
     23962         1         0     23965         1         0     23968         1         0
     23971         1         0     23974         1         0     23976         1         0
     23978         1         0     23981         1         0     23984         1         0
     23987         1         0     23990         1         0     23993         1         0
     23996         1         0     23999         1         0     24003         1         0
     24006         1         0     24009         1         0     24012         1         0
     24015         1         0     24018         1         0     24021         1         0
     24023         1         0     24025         1         0     24028         1         0
     24031         1         0     24034         1         0     24037         1         0
     24040         1         0     24043         1         0     24046         1         0
     24050         2         0     24066         2         0     24077         1         0
     24081         1         0     24085         1         0     24087         1         0
     24089         1         0     24092         1         0     24095         1         0
     24098         1         0     24101         1         0     24104         1         0
     24107         1         0     24110         1         0     24113         1         0
     24116         1         0     24119         1         0     24122         1         0
     24125         1         0     24129         1         0     24134         1         0
     24137         1         0     24140         1         0     24143         1         0
     24146         1         0     24149         1         0     24152         1         0
     24155         1         0     24158         1         0     24161         1         0
     24164         1         0     24167         1         0     24170         1         0
     24173         1         0     24176         1         0     24179         1         0
     24182         1         0     24185         1         0     24188         1         0
     24191         1         0     24194         1         0     24198         1         0
     24202         1         0     24205         1         0     24208         1         0
     24211         1         0     24213         1         0     24215         1         0
     24218         1         0     24221         1         0     24223         0         0
     24224         1         0     24228         1         0     24231         1         0
     24234         1         0     24236         0         0     24237         1         0
     24241         1         0     24244         1         0     24247         1         0
     24249         1         0     24253         1         0     24256         1         0
     24259         1         0     24262         1         0     24264         1         0
     24268         1         0     24272         2         0     24279         2         0
     24290         1         0     24298         1         0     24307         1         0
     24310         1         0     24313         1         0     24316         1         0
     24319         1         0     24322         1         0     24325         1         0
     24327         1         0     24329         1         0     24332         1         0
     24335         1         0     24338         1         0     24341         1         0
     24344         1         0     24347         1         0     24350         1         0
     24354         1         0     24357         1         0     24360         1         0
     24363         1         0     24366         1         0     24369         1         0
     24372         1         0     24374         1         0     24376         1         0
     24379         1         0     24382         1         0     24385         1         0
     24388         1         0     24391         1         0     24394         1         0
     24397         1         0     24401         2         0     24417         2         0
     24428         1         0     24432         1         0     24436         1         0
     24438         1         0     24440         1         0     24443         1         0
     24446         1         0     24449         1         0     24452         1         0
     24455         1         0     24458         1         0     24461         1         0
     24464         1         0     24467         1         0     24470         1         0
     24473         1         0     24476         1         0     24480         1         0
     24485         1         0     24488         1         0     24491         1         0
     24494         1         0     24497         1         0     24500         1         0
     24503         1         0     24506         1         0     24509         1         0
     24512         1         0     24515         1         0     24518         1         0
     24521         1         0     24524         1         0     24527         1         0
     24530         1         0     24533         1         0     24536         1         0
     24539         1         0     24542         1         0     24545         1         0
     24549         1         0     24553         1         0     24556         1         0
     24559         1         0     24562         1         0     24564         1         0
     24566         1         0     24569         1         0     24572         1         0
     24574         0         0     24575         1         0     24579         1         0
     24582         1         0     24585         1         0     24587         0         0
     24588         1         0     24592         1         0     24595         1         0
     24598         1         0     24600         1         0     24604         1         0
     24607         1         0     24610         1         0     24613         1         0
     24615         1         0     24619         1         0     24623         2         0
     24639         2         0     24650         1         0     24654         1         0
     24658         1         0     24660         1         0     24662         1         0
     24665         1         0     24668         1         0     24671         1         0
     24674         1         0     24677         1         0     24680         1         0
     24683         1         0     24686         1         0     24689         1         0
     24692         1         0     24695         1         0     24698         1         0
     24702         1         0     24707         1         0     24710         1         0
     24713         1         0     24716         1         0     24719         1         0
     24722         1         0     24725         1         0     24728         1         0
     24731         1         0     24734         1         0     24737         1         0
     24740         1         0     24743         1         0     24746         1         0
     24749         1         0     24752         1         0     24755         1         0
     24758         1         0     24761         1         0     24764         1         0
     24767         1         0     24771         2         0     24778         2         0
     24789         1         0     24797         1         0     24806         1         0
     24809         1         0     24812         1         0     24815         1         0
     24818         1         0     24821         1         0     24824         1         0
     24826         1         0     24828         1         0     24831         1         0
     24834         1         0     24837         1         0     24840         1         0
     24843         1         0     24846         1         0     24849         1         0
     24853         1         0     24856         1         0     24859         1         0
     24862         1         0     24865         1         0     24868         1         0
     24871         1         0     24873         1         0     24875         1         0
     24878         1         0     24881         1         0     24884         1         0
     24887         1         0     24890         1         0     24893         1         0
     24896         1         0

         0         0 !NUMLP NUMLPH

         0 !NCRTERM: cross-terms

